
                                 *****************
                                 * O   R   C   A *
                                 *****************

                                            #,                                       
                                            ###                                      
                                            ####                                     
                                            #####                                    
                                            ######                                   
                                           ########,                                 
                                     ,,################,,,,,                         
                               ,,#################################,,                 
                          ,,##########################################,,             
                       ,#########################################, ''#####,          
                    ,#############################################,,   '####,        
                  ,##################################################,,,,####,       
                ,###########''''           ''''###############################       
              ,#####''   ,,,,##########,,,,          '''####'''          '####       
            ,##' ,,,,###########################,,,                        '##       
           ' ,,###''''                  '''############,,,                           
         ,,##''                                '''############,,,,        ,,,,,,###''
      ,#''                                            '''#######################'''  
     '                                                          ''''####''''         
             ,#######,   #######,   ,#######,      ##                                
            ,#'     '#,  ##    ##  ,#'     '#,    #''#        ,####,    ,#,          
            ##       ##  ##   ,#'  ##            #'  '#       #'       ,# #          
            ##       ##  #######   ##           ,######,      #####,      #          
            '#,     ,#'  ##    ##  '#,     ,#' ,#      #,     #,   #      #          
             '#######'   ##     ##  '#######'  #'      '#     '####' #    #          



                #########################################################
                #                        -***-                          #
                #          Department of theory and spectroscopy        #
                #                                                       #
                #                      Frank Neese                      #
                #                                                       #
                #     Directorship, Architecture, Infrastructure        #
                #                    SHARK, DRIVERS                     #
                #        Core code/Algorithms in most modules           #
                #                                                       #
                #        Max Planck Institute fuer Kohlenforschung      #
                #                Kaiser Wilhelm Platz 1                 #
                #                 D-45470 Muelheim/Ruhr                 #
                #                      Germany                          #
                #                                                       #
                #                  All rights reserved                  #
                #                        -***-                          #
                #########################################################


                         Program Version 6.1.1  -  RELEASE   -
                                (GIT: $487d211c$)
                          ($2025-11-21 10:33:24 +0100$)


 With contributions from (in alphabetic order):
[Max-Planck-Institut fuer Kohlenforschung]                               
  Daniel Aravena         : Magnetic Suceptibility                        
  Michael Atanasov       : Ab Initio Ligand Field Theory (pilot matlab implementation)
  Alexander A. Auer      : GIAO ZORA, VPT2 properties, NMR spectrum      
  Ute Becker             : All parallelization in ORCA, NUMFREQ, NUMCALC 
  Giovanni Bistoni       : ED, misc. LED, open-shell LED, HFLD           
  Dmytro Bykov           : pre 5.0 version of the SCF Hessian            
  Marcos Casanova-Páez   : Triplet and SCS-CIS(D). UHF-(DLPNO)-IP/EA/STEOM-CCSD. UHF-CVS-IP/STEOM-CCSD   
  Vijay G. Chilkuri      : MRCI spin determinant printing, contributions to CSF-ICE 
  Pauline Colinet        : FMM embedding                                 
  Dipayan Datta          : RHF DLPNO-CCSD density                        
  Achintya Kumar Dutta   : EOM-CC, STEOM-CC                              
  Nicolas Foglia         : Exact transition moments, OPA infrastructure, MCD improvements    
  Dmitry Ganyushin       : Spin-Orbit,Spin-Spin,Magnetic field MRCI      
  Miquel Garcia-Rates    : C-PCM and meta-GGA Hessian, CCSD/C-PCM, Gaussian charge scheme 
  Tiago L. C. Gouveia    : GS-ROHF, GS-ROCIS                             
  Yang Guo               : DLPNO-NEVPT2, F12-NEVPT2, CIM, IAO-localization        
  Andreas Hansen         : Spin unrestricted coupled pair/coupled cluster methods 
  Ingolf Harden          : AUTO-CI MPn and infrastructure                
  Benjamin Helmich-Paris : MC-RPA, TRAH-(SCF,CASSCF), AVAS, COSX integrals, SCF dyn. polar., MC-PDFT, srDFT 
  Lee Huntington         : MR-EOM, pCC                                   
  Robert Izsak           : Overlap fitted RIJCOSX, COSX-SCS-MP3, EOM     
  Riya Kayal             : Wick's Theorem for AUTO-CI, AUTO-CI UHF-CCSDT 
  Emily Kempfer          : AUTO-CI RHF CISDT and CCSDT, approximate NEVPT4
  Christian Kollmar      : KDIIS, OOCD, Brueckner-CCSD(T), CCSD density, CASPT2, CASPT2-K, improved NEVPT2 
  Axel Koslowski         : Symmetry handling                             
  Simone Kossmann        : meta-GGA functionals, TD-DFT gradient, OOMP2, (MP2 Hessian; deprecated post 5.0) 
  Lucas Lang             : DCDCAS, Hyperfine gauge corrections, ICE-SOC+SSC
  Marvin Lechner         : AUTO-CI (C++ implementation), FIC-MRCC        
  Spencer Leger          : CASSCF response                               
  Dagmar Lenk            : GEPOL surface, SMD, ORCA-2-JSON               
  Dimitrios Liakos       : Extrapolation schemes; Compound Job, Property file
  Dimitrios Manganas     : Further ROCIS development; embedding schemes. LFT, Crystal Embedding 
  Dimitrios Pantazis     : SARC Basis sets                               
  Anastasios Papadopoulos: AUTO-CI, single reference methods and gradients 
  Taras Petrenko         : pre 6.0 DFT Hessian and TD-DFT gradient,  ECA, NRVS 
  Petra Pikulova         : Analytic Raman intensities                    
  Peter Pinski           : DLPNO-MP2, DLPNO-MP2 Gradient                 
  Shashank Vittal Rao    : ES-AILFT, MagRelax                            
  Christoph Reimann      : Effective Core Potentials                     
  Marius Retegan         : Local ZFS, SOC                                
  Christoph Riplinger    : Optimizer, TS searches, QM/MM, DLPNO-CCSD(T), (RO)-DLPNO pert. Triples 
  Michael Roemelt        : Original ROCIS implementation, recursive CI coupling coefficients
  Masaaki Saitow         : Open-shell DLPNO-CCSD energy and density      
  Barbara Sandhoefer     : DKH picture change effects                    
  Yorick L. A. Schmerwitz: GMF and freeze-and-release deltaSCF, NEB S-IDPP initial path                    
  Kantharuban Sivalingam : CASSCF convergence/infrastructure, NEVPT2, NEVPT3, NEVPT4(SD), FIC-MRCI and CEPA variants
  Bernardo de Souza      : ESD, SOC TD-DFT                               
  Georgi L. Stoychev     : AutoAux, RI-MP2 NMR, DLPNO-MP2 response, X2C  
  Van Anh Tran           : RI-MP2 g-tensors                              
  Willem Van den Heuvel  : Paramagnetic NMR                              
  Zikuan Wang            : NOTCH, Electric field optimization            
  Frank Wennmohs         : Technical directorship and infrastructure     
  Hang Xu                : AUTO-CI-Response properties                   
                                                                         
[FACCTs GmbH]                                                            
  Markus Bursch, Nicolas Foglia, Miquel Garcia-Rates, Ingolf Harden, Hagen Neugebauer, Anastasios Papadopoulos, 
  Christoph Riplinger, Bernardo de Souza, Georgi L. Stoychev                                                    
                                                                 
  APM, various basis sets, CI-OPT, improved COSX, DLPNO-Multilevel,           
  DOCKER, DRACO, updates on ESD, Fragmentator, GOAT, IRC, LR-CPCM, L-BFGS, MBIS, meta-GGA TD-DFT gradient, ML-optimized integration grids, 
  MM, NACMEs, nearIR, NEB, NEB-TS, NL-DFT gradient (VV10), 2- and 3-layer-ONIOM, interface openCOSMO-RS, QMMM,   
  Crystal-QMMM, RESP, rigid body optimization, SF, symmetry and pop. for TD-DFT, various functionals, SOLVATOR                                   
                                                                         
[Other institutions]                                                     
  V. Asgeirsson          : NEB                                           
  Christoph Bannwarth    : sTDA-DFT, sTD-DFT, PBEh-3c, B97-3c, D3        
  Giovanni Bistoni       : ETS/NOCV, ADLD/ADEX, COVALED                  
  Martin Brehm           : Molecular dynamics                            
  Ronald Cardenas        : ETS/NOCV                                      
  Martina Colucci        : COVALED                                       
  Sebastian Ehlert       : rSCAN, r2SCAN, r2SCAN-3c, D4, dhf basis sets  
  Marvin Friede          : D4 for Fr, Ra, Ac-Lr                          
  Lars Goerigk           : TD-DFT with DH, B97 family of functionals     
  Stefan Grimme          : VdW corrections, initial TS optimization, DFT functionals, gCP, sTDA/sTD-DF 
  Waldemar Hujo          : DFT-NL                                        
  H. Jonsson             : NEB                                           
  Holger Kruse           : gCP                                           
  Marcel Mueller         : wB97X-3c, vDZP basis set                      
  Hagen Neugebauer       : wr2SCAN, Native XTB                           
  Gianluca Regni         : ADLD/ADEX                                     
  Tobias Risthaus        : pre 6.0 range-separated hybrid DFT and stability analysis
  Lukas Wittmann         : regularized MP2, r2SCAN double-hybrids, wr2SCAN        
                                                                         
We gratefully acknowledge several colleagues who have allowed us to      
interface, adapt or use parts of their codes:                            
  Ed Valeev, F. Pavosevic, A. Kumar             : LibInt (2-el integral package), F12 methods 
  Garnet Chan, S. Sharma, J. Yang, R. Olivares  : DMRG                   
  Ulf Ekstrom                                   : XCFun DFT Library      
  Mihaly Kallay                                 : mrcc  (arbitrary order and MRCC methods)
  Frank Weinhold                                : gennbo (NPA and NBO analysis)           
  Simon Mueller                                 : openCOSMO-RS                            
  Christopher J. Cramer and Donald G. Truhlar   : smd solvation model                     
  S Lehtola, MJT Oliveira, MAL Marques          : LibXC Library                           
  Liviu Ungur et al                             : ANISO software                          


 Your calculation uses the libint2 library for the computation of 2-el integrals
 For citations please refer to: http://libint.valeyev.net

 Your ORCA version has been built with support for libXC version: 7.0.0
 For citations please refer to: https://libxc.gitlab.io

 This ORCA versions uses:
   CBLAS   interface :  Fast vector & matrix operations
   LAPACKE interface :  Fast linear algebra routines
   SCALAPACK package :  Parallel linear algebra routines
   Shared memory     :  Shared parallel matrices
   BLAS/LAPACK       :  OpenBLAS 0.3.29  USE64BITINT DYNAMIC_ARCH NO_AFFINITY SkylakeX SINGLE_THREADED
        Core in use  :  SkylakeX
   Copyright (c) 2011-2014, The OpenBLAS Project


  ***********************************
  * Starting time: Mon Mar 23 19:03:38 2026
  * Host name:     notch010
  * Process ID:    824863
  * Working dir.:  /scratch/general/vast/u0253283/orca/11434190
  ***********************************

================================================================================

----- Orbital basis set information -----
Your calculation utilizes the basis: aug-cc-pVTZ 
    H, B-Ne : Obtained from the ccRepo (grant-hill.group.shef.ac.uk/ccrepo) Feb. 2017
              R. A. Kendall, T. H. Dunning, Jr., R. J. Harrison, J. Chem. Phys. 96, 6796 (1992)
         He : Obtained from the ccRepo (grant-hill.group.shef.ac.uk/ccrepo) Feb. 2017
              D. E. Woon, T. H. Dunning, Jr., J. Chem. Phys. 100, 2975 (1994)
  Li-Be, Na : Obtained from the ccRepo (grant-hill.group.shef.ac.uk/ccrepo) Feb. 2017
              B. P. Prascher, D. E. Woon, K. A. Peterson, T. H. Dunning, Jr., A. K. Wilson, Theor. Chem. Acc. 128, 69 (2011)
         Mg : Obtained from the Peterson Research Group Website (tyr0.chem.wsu.edu/~kipeters) Feb. 2017
              B. P. Prascher, D. E. Woon, K. A. Peterson, T. H. Dunning, Jr., A. K. Wilson, Theor. Chem. Acc. 128, 69 (2011)
      Al-Ar : Obtained from the ccRepo (grant-hill.group.shef.ac.uk/ccrepo) Feb. 2017
              D. E. Woon, T. H. Dunning, Jr., J. Chem. Phys. 98, 1358 (1993)
      Sc-Zn : Obtained from the ccRepo (grant-hill.group.shef.ac.uk/ccrepo) Feb. 2017
              N. B. Balabanov, K. A. Peterson, J. Chem. Phys. 123, 064107 (2005)
              N. B. Balabanov, K. A. Peterson, J. Chem. Phys. 125, 074110 (2006)
      Ga-Kr : Obtained from the ccRepo (grant-hill.group.shef.ac.uk/ccrepo) Feb. 2017
              A. K. Wilson, D. E. Woon, K. A. Peterson, T. H. Dunning, Jr., J. Chem. Phys. 110, 7667 (1999)
     Ag, Au : Obtained from the Peterson Research Group Website (tyr0.chem.wsu.edu/~kipeters) Feb. 2017
              K. A. Peterson, C. Puzzarini, Theor. Chem. Acc. 114, 283 (2005)

================================================================================
                                        WARNINGS
                       Please study these warnings very carefully!
================================================================================


WARNING: The environment variable RSH_COMMAND is not set!
  ===> : All Displacements for the Numerical Hessian or Gradient calculation
         will be started on localhost

WARNING: Numerical Frequencies Analysis needs Gradient calculation
  ===> : Will do Numerical Gradient calculation !!!

WARNING: Geometry Optimization
  ===> : Switching off AutoStart
         For restart on a previous wavefunction, please use MOREAD

WARNING: Post HF methods need fully converged wavefunctions
  ===> : Setting SCFConvForced true
         You can overwrite this default with %scf ConvForced false 


WARNING: MDCI localization with Augmented Hessian Foster-Boys
  ===> : Switching off randomization!

================================================================================
                                       INPUT FILE
================================================================================
NAME = methane.inp
|  1> # CH4: CCSD(T) geometry optimization + freq. calc. at the final geom.
|  2> #      Basis: aug-cc-pVTZ
|  3> #      CCSD : Frozen core
|  4> 
|  5> # Set the base name for the output file
|  6> %base "CH4_CCSD"
|  7> 
|  8> %pal
|  9>     nprocs 8     
| 10> end
| 11> 
| 12> # Keyword line
| 13> ! CCSD(T) Opt NumGrad NumFreq
| 14> 
| 15> # Output
| 16> %output
| 17>   PrintLevel  3
| 18> end
| 19> 
| 20> # Basis
| 21> %basis
| 22>   Basis  "aug-cc-pVTZ"
| 23> end
| 24> 
| 25> # SCF block
| 26> %scf
| 27>   TolE   1e-12        
| 28>   MaxIter 200         
| 29>   Thresh 1e-18        
| 30>   TCut   1e-20        
| 31>   ConvCheckMode 2     
| 32> end
| 33> 
| 34> # Canonical Correlation Block
| 35> %mdci
| 36>   STol    1e-10       
| 37>   Triples 1           
| 38>   MaxIter 100         
| 39> end
| 40> 
| 41> %geom
| 42>       MaxIter 100 
| 43> 
| 44>       # Convergence 
| 45>       TolE 1.E-10
| 46>       TolRMSG  1.0E-6
| 47>       TolMAXG  3.0E-6
| 48>       TolRMSD  2.0E-5
| 49>       TolMaxD  4.0E-5
| 50> end
| 51> 
| 52> 
| 53> # Coordinate block (Default: Angstroem)
| 54> * xyz 0 1          # Charge:0  Spin:2S+1
| 55> C   0.000000000  0.000000000  0.000000000
| 56> H   0.000000000  0.000000000  1.089000000
| 57> H   1.026719000  0.000000000 -0.363000000
| 58> H  -0.513360000  0.889165000 -0.363000000
| 59> H  -0.513360000 -0.889165000 -0.363000000
| 60> *
| 61> 
| 62> 
| 63>                          ****END OF INPUT****
================================================================================

                       *****************************
                       * Geometry Optimization Run *
                       *****************************

Geometry optimization settings:
Update method            Update   .... BFGS
Choice of coordinates    CoordSys .... (2022) Redundant Internals
Initial Hessian          InHess   .... Almloef's Model
Max. no of cycles        MaxIter  .... 100

Convergence Tolerances:
Energy Change            TolE     ....  1.0000e-10 Eh
Max. Gradient            TolMAXG  ....  3.0000e-06 Eh/bohr
RMS Gradient             TolRMSG  ....  1.0000e-06 Eh/bohr
Max. Displacement        TolMAXD  ....  4.0000e-05 bohr
RMS Displacement         TolRMSD  ....  2.0000e-05 bohr
Strict Convergence                .... False

------------------------------------------------------------------------------
                        ORCA OPTIMIZATION COORDINATE SETUP
------------------------------------------------------------------------------

The optimization will be done in redundant internal coordinates (2022)
Making redundant internal coordinates   ...  (2022 redundants) done
Evaluating the initial hessian          ...  (Almloef) done
Evaluating the coordinates              ...  done
Calculating the B-matrix                .... done
Calculating the G-matrix                .... done
The number of degrees of freedom        ....   10

    -----------------------------------------------------------------
                    Redundant Internal Coordinates


    -----------------------------------------------------------------
         Definition                    Initial Value    Approx d2E/dq
    -----------------------------------------------------------------
      1. B(H   1,C   0)                  1.0890         0.361425   
      2. B(H   2,C   0)                  1.0890         0.361425   
      3. B(H   3,C   0)                  1.0890         0.361425   
      4. B(H   4,C   0)                  1.0890         0.361425   
      5. A(H   1,C   0,H   3)          109.4712         0.291175   
      6. A(H   2,C   0,H   3)          109.4712         0.291175   
      7. A(H   1,C   0,H   4)          109.4712         0.291175   
      8. A(H   2,C   0,H   4)          109.4712         0.291175   
      9. A(H   3,C   0,H   4)          109.4712         0.291175   
     10. A(H   1,C   0,H   2)          109.4712         0.291175   
    -----------------------------------------------------------------

Number of atoms                         .... 5
Number of degrees of freedom            .... 10


         *************************************************************
         *                GEOMETRY OPTIMIZATION CYCLE   1            *
         *************************************************************
---------------------------------
CARTESIAN COORDINATES (ANGSTROEM)
---------------------------------
  C      0.000000    0.000000    0.000000
  H      0.000000    0.000000    1.089000
  H      1.026719    0.000000   -0.363000
  H     -0.513360    0.889165   -0.363000
  H     -0.513360   -0.889165   -0.363000

----------------------------
CARTESIAN COORDINATES (A.U.)
----------------------------
  NO LB      ZA    FRAG     MASS         X           Y           Z
   0 C     6.0000    0    12.011    0.000000    0.000000    0.000000
   1 H     1.0000    0     1.008    0.000000    0.000000    2.057912
   2 H     1.0000    0     1.008    1.940218    0.000000   -0.685971
   3 H     1.0000    0     1.008   -0.970110    1.680278   -0.685971
   4 H     1.0000    0     1.008   -0.970110   -1.680278   -0.685971

--------------------------------
INTERNAL COORDINATES (ANGSTROEM)
--------------------------------
 C      0   0   0     0.000000000000     0.00000000     0.00000000
 H      1   0   0     1.089000000000     0.00000000     0.00000000
 H      1   2   0     1.088999956364   109.47122145     0.00000000
 H      1   2   3     1.089000407174   109.47121306   239.99998319
 H      1   2   3     1.089000407174   109.47121306   120.00001681

---------------------------
INTERNAL COORDINATES (A.U.)
---------------------------
 C      0   0   0     0.000000000000     0.00000000     0.00000000
 H      1   0   0     2.057911759840     0.00000000     0.00000000
 H      1   2   0     2.057911677380   109.47122145     0.00000000
 H      1   2   3     2.057912529287   109.47121306   239.99998319
 H      1   2   3     2.057912529287   109.47121306   120.00001681

---------------------
BASIS SET INFORMATION
---------------------
There are 2 groups of distinct atoms

 Group   1 Type C   : 19s6p3d2f contracted to 5s4p3d2f pattern {88111/3111/111/11}
 Group   2 Type H   : 6s3p2d contracted to 4s3p2d pattern {3111/111/11}

Atom   0C    basis set group =>   1
Atom   1H    basis set group =>   2
Atom   2H    basis set group =>   2
Atom   3H    basis set group =>   2
Atom   4H    basis set group =>   2


           ************************************************************
           *        Program running with 8 parallel MPI-processes     *
           *              working on a common directory               *
           ************************************************************
------------------------------------------------------------------------------
                             ORCA STARTUP CALCULATIONS
------------------------------------------------------------------------------
------------------------------------------------------------------------------
                   ___                                                        
                  /   \      - P O W E R E D   B Y -                         
                 /     \                                                     
                 |  |  |   _    _      __       _____    __    __             
                 |  |  |  | |  | |    /  \     |  _  \  |  |  /  |          
                  \  \/   | |  | |   /    \    | | | |  |  | /  /          
                 / \  \   | |__| |  /  /\  \   | |_| |  |  |/  /          
                |  |  |   |  __  | /  /__\  \  |    /   |      \           
                |  |  |   | |  | | |   __   |  |    \   |  |\   \          
                \     /   | |  | | |  |  |  |  | |\  \  |  | \   \       
                 \___/    |_|  |_| |__|  |__|  |_| \__\ |__|  \__/        
                                                                              
                      - O R C A' S   B I G   F R I E N D -                    
                                      &                                       
                       - I N T E G R A L  F E E D E R -                       
                                                                              
 v1 FN, 2020, v2 2021, v3 2022-2024                                           
------------------------------------------------------------------------------


----------------------
SHARK INTEGRAL PACKAGE
----------------------

Number of atoms                             ...      5
Number of basis functions                   ...    144
Number of shells                            ...     56
Maximum angular momentum                    ...      3
Integral batch strategy                     ... SHARK/LIBINT Hybrid
RI-J (if used) integral strategy            ... SPLIT-RIJ (Revised 2003 algorithm where possible)
Printlevel                                  ...      1
Contraction scheme used                     ... PARTIAL GENERAL contraction
Prescreening option                         ... SCHWARTZ
   Thresh                                   ... 1.000e-18
   Tcut                                     ... 1.000e-20
   Tpresel                                  ... 1.000e-20 
Coulomb Range Separation                    ... NOT USED
Exchange Range Separation                   ... NOT USED
Multipole approximations                    ... NOT USED
Finite Nucleus Model                        ... NOT USED
CABS basis                                  ... NOT available
Auxiliary Coulomb fitting basis             ... NOT available
Auxiliary J/K fitting basis                 ... NOT available
Auxiliary Correlation fitting basis         ... NOT available
Auxiliary 'external' fitting basis          ... NOT available

Checking pre-screening integrals            ... done (  0.0 sec) Dimension = 56
Save PGC pre-screening integrals            ... done (  0.0 sec) Dimension = 56
Calculate PGC overlap integrals             ... done (  0.1 sec) Dimension = 50
Calculating pre-screening integrals (ORCA)  ... done (  0.1 sec) Dimension = 50
Shell pair information
Shell pair cut-off parameter TPreSel        ...   1.0e-20
Total number of shell pairs                 ...      1596
Shell pairs after pre-screening             ...      1596
Total number of primitive shell pairs       ...      2226
Primitive shell pairs kept                  ...      2184
          la=0 lb=0:    378 shell pairs
          la=1 lb=0:    432 shell pairs
          la=1 lb=1:    136 shell pairs
          la=2 lb=0:    297 shell pairs
          la=2 lb=1:    176 shell pairs
          la=2 lb=2:     66 shell pairs
          la=3 lb=0:     54 shell pairs
          la=3 lb=1:     32 shell pairs
          la=3 lb=2:     22 shell pairs
          la=3 lb=3:      3 shell pairs

Checking whether 4 symmetric matrices of dimension 144 fit in memory
:Max Core in MB      =   4096.00
 MB in use           =      3.71
 MB left             =   4092.29
 MB needed           =      0.32
 Data fit in memory  = YES
Calculating Nuclear repulsion               ... done (  0.0 sec) ENN=     13.447724172533 Eh

Diagonalization of the overlap matrix:
Smallest eigenvalue                        ... 8.289e-05
Time for diagonalization                   ...    0.013 sec
Threshold for overlap eigenvalues          ... 1.000e-07
Number of eigenvalues below threshold      ... 0
Time for construction of square roots      ...    0.007 sec
Total time needed                          ...    0.028 sec

-------------------
DFT GRID GENERATION
-------------------

General Integration Accuracy     IntAcc      ... 4.388
Radial Grid Type                 RadialGrid  ... OptM3 with GC (2021)
Angular Grid (max. ang.)         AngularGrid ... 4 (Lebedev-302)
Angular grid pruning method      GridPruning ... 4 (adaptive)
Weight generation scheme         WeightScheme... mBecke (2022)
Basis function cutoff            BFCut       ... 1.0000e-11
Integration weight cutoff        WCut        ... 1.0000e-14
Partially contracted basis set               ... off
Rotationally invariant grid construction     ... off
Angular grids for H and He will be reduced by one unit
Diffuse basis detected: some atoms will have their outermost
                        angular grid increased by 1.

Total number of grid points                  ...    20463
Total number of batches                      ...      321
Average number of points per batch           ...       63
Average number of grid points per atom       ...     4093

---------------------
SHARK GRID GENERATION
---------------------

General Integration Accuracy     IntAcc      ... 4.388
Radial Grid Type                 RadialGrid  ... OptM3 with GC (2021)
Angular Grid (max. ang.)         AngularGrid ... 4 (Lebedev-302)
Angular grid pruning method      GridPruning ... 4 (adaptive)
Weight generation scheme         WeightScheme... mBecke (2022)
Basis function cutoff            BFCut       ... 1.0000e-11
Integration weight cutoff        WCut        ... 1.0000e-14
Partially contracted basis set               ... off
Rotationally invariant grid construction     ... off
Angular grids for H and He will be reduced by one unit
Diffuse basis detected: some atoms will have their outermost
                        angular grid increased by 1.
Steep s-basis detected: some atoms will have their radial
                        grid points doubled.

Total number of grid points                  ...    27007
Total number of batches                      ...      424
Average number of points per batch           ...       63
Average number of grid points per atom       ...     5401
Grids setup in   0.4 sec
Initializing property integral containers    ... done (  0.0 sec)

SHARK setup successfully completed in   0.8 seconds

Maximum memory used throughout the entire STARTUP-calculation: 17.9 MB


           ************************************************************
           *        Program running with 8 parallel MPI-processes     *
           *              working on a common directory               *
           ************************************************************
-------------------------------------------------------------------------------
                                 ORCA GUESS
                   Start orbitals & Density for SCF / CASSCF
-------------------------------------------------------------------------------

------------
SCF SETTINGS
------------
Hamiltonian:
 Ab initio Hamiltonian  Method          .... Hartree-Fock(GTOs)


General Settings:
 Integral files         IntName         .... CH4_CCSD
 Hartree-Fock type      HFTyp           .... RHF
 Total Charge           Charge          ....    0
 Multiplicity           Mult            ....    1
 Number of Electrons    NEL             ....   10
 Basis Dimension        Dim             ....  138
 Nuclear Repulsion      ENuc            ....     13.4477241725 Eh

Convergence Acceleration:
 AO-DIIS                CNVDIIS         .... on
   Start iteration      DIISMaxIt       ....    12
   Startup error        DIISStart       ....  0.200000
   # of expansion vecs  DIISMaxEq       ....     5
   Bias factor          DIISBfac        ....   1.050
   Max. coefficient     DIISMaxC        ....  10.000
 MO-DIIS                CNVKDIIS        .... off
 Trust-Rad. Augm. Hess. CNVTRAH         .... auto
   Auto Start mean grad. ratio tolernc. ....  1.125000
   Auto Start start iteration           ....    50
   Auto Start num. interpolation iter.  ....    10
   Max. Number of Micro iterations      ....    24
   Max. Number of Macro iterations      .... Maxiter - #DIIS iter
   Number of Davidson start vectors     ....     2
   Converg. threshold    (grad. norm)   ....   1.000e-05
   Grad. Scal. Fac. for Micro threshold ....   0.100
   Minimum threshold for Micro iter.    ....   1.000e-02
   NR start threshold (gradient norm)   ....   1.000e-04
   Initial trust radius                 ....   0.400
   Minimum AH scaling param. (alpha)    ....   1.000
   Maximum AH scaling param. (alpha)    .... 1000.000
   Quad. conv. algorithm                .... NR
   White noise on init. David. guess    .... on
   Maximum white noise                  ....   0.010
   Pseudo random numbers                .... off
   Inactive MOs                         .... canonical
   Orbital update algorithm             .... Taylor
   Preconditioner                       .... Diag
   Full preconditioner red. dimension   ....   250
 SOSCF                 CNVSOSCF           .... on
   Start iteration     SOSCFMaxIt         ....   150
   Startup grad/error  SOSCFStart         ....  0.003300
   Hessian update      SOSCFHessUp        .... L-BFGS
   Autom. constraints  SOSCFAutoConstrain .... off
 Level Shifting         CNVShift        .... on
   Level shift para.    LevelShift      ....    0.2500
   Turn off err/grad.   ShiftErr        ....    0.0010
 Zerner damping         CNVZerner       .... off
 Static damping         CNVDamp         .... on
   Fraction old density DampFac         ....    0.7000
   Max. Damping (<1)    DampMax         ....    0.9800
   Min. Damping (>=0)   DampMin         ....    0.0000
   Turn off err/grad.   DampErr         ....    0.1000

SCF Procedure:
 Maximum # iterations   MaxIter         ....   200
 SCF integral mode      SCFMode         .... Direct
   Integral package                     .... SHARK and LIBINT hybrid scheme
 Reset frequency        DirectResetFreq ....    20
 Integral Threshold     Thresh          ....  1.000e-18 Eh
 Primitive CutOff       TCut            ....  1.000e-20 Eh

Convergence Tolerance:
 Convergence Check Mode ConvCheckMode   .... Total+1el-Energy
 Convergence forced     ConvForced      .... 1
 Energy Change          TolE            ....  1.000e-12 Eh
 1-El. energy change                    ....  1.000e-09 Eh
 Orbital Gradient       TolG            ....  1.000e-05
 Orbital Rotation angle TolX            ....  1.000e-05
 DIIS Error             TolErr          ....  5.000e-07

------------------------------
INITIAL GUESS: MODEL POTENTIAL
------------------------------
Loading Hartree-Fock densities                     ... done
Calculating cut-offs                               ... done
Initializing the effective Hamiltonian             ... done
Setting up the integral package (SHARK)            ... done
Starting the Coulomb interaction                   ... done (   0.1 sec)
Making the grid                                    ... done (   0.1 sec)
Mapping shells                                     ... done
Starting the XC term evaluation                    ... done (   0.0 sec)
Transforming the Hamiltonian                       ... done (   0.0 sec)
Diagonalizing the Hamiltonian                      ... done (   0.0 sec)
Back transforming the eigenvectors                 ... done (   0.0 sec)
Now organizing SCF variables                       ... done
                      ------------------
                      INITIAL GUESS DONE (   0.2 sec)
                      ------------------
             **** ENERGY FILE WAS UPDATED (CH4_CCSD.en.tmp) ****
Finished Guess after   1.0 sec
Maximum memory used throughout the entire GUESS-calculation: 7.6 MB


           ************************************************************
           *        Program running with 8 parallel MPI-processes     *
           *              working on a common directory               *
           ************************************************************

-------------------------------------------------------------------------------------------
                                      ORCA LEAN-SCF
                              memory conserving SCF solver
-------------------------------------------------------------------------------------------

----------------------------------------D-I-I-S--------------------------------------------
Iteration    Energy (Eh)           Delta-E    RMSDP     MaxDP     DIISErr   Damp  Time(sec)
-------------------------------------------------------------------------------------------
               ***  Starting incremental Fock matrix formation  ***
    1    -40.0983653447641046     0.00e+00  2.65e-03  2.79e-02  2.92e-01  0.700   0.5
    2    -40.1401893773070597    -4.18e-02  1.93e-03  2.01e-02  1.87e-01  0.700   0.4
                               ***Turning on AO-DIIS***
    3    -40.1651034976440968    -2.49e-02  1.05e-03  1.62e-02  1.10e-01  0.700   0.5
    4    -40.1805339384682867    -1.54e-02  7.11e-04  1.14e-02  7.28e-02  0.700   0.4
    5    -40.1907530329490186    -1.02e-02  1.67e-03  2.68e-02  5.02e-02  0.000   0.4
    6    -40.2135341331795289    -2.28e-02  1.28e-04  1.54e-03  3.64e-03  0.000   0.4
                              *** Initializing SOSCF ***
---------------------------------------S-O-S-C-F--------------------------------------
Iteration    Energy (Eh)           Delta-E    RMSDP     MaxDP     MaxGrad    Time(sec)
--------------------------------------------------------------------------------------
    7    -40.2135665013064738    -3.24e-05  8.91e-05  5.97e-04  1.66e-03     0.5
               *** Restarting incremental Fock matrix formation ***
    8    -40.2135744561155946    -7.95e-06  1.98e-05  1.41e-04  1.47e-04     0.4
    9    -40.2135751017924150    -6.46e-07  9.47e-06  6.25e-05  5.00e-05     0.4
   10    -40.2135751978393614    -9.60e-08  6.05e-07  6.42e-06  2.58e-06     0.4
   11    -40.2135751980256444    -1.86e-10  2.20e-07  3.16e-06  1.29e-06     0.4
                  *** Gradient check signals convergence ***

               *****************************************************
               *                     SUCCESS                       *
               *           SCF CONVERGED AFTER  11 CYCLES          *
               *****************************************************

             **** ENERGY FILE WAS UPDATED (CH4_CCSD.en.tmp) ****

----------------
TOTAL SCF ENERGY
----------------

Total Energy       :        -40.21357519804378 Eh           -1094.26701 eV

Components:
Nuclear Repulsion  :         13.44772417253286 Eh             365.93118 eV
Electronic Energy  :        -53.66129937057664 Eh           -1460.19819 eV
One Electron Energy:        -79.75489386142050 Eh           -2170.24099 eV
Two Electron Energy:         26.09359449084386 Eh             710.04280 eV

Virial components:
Potential Energy   :        -80.36773360600378 Eh           -2186.91721 eV
Kinetic Energy     :         40.15415840796000 Eh            1092.65020 eV
Virial Ratio       :          2.00147971698174

---------------
SCF CONVERGENCE
---------------

  Last Energy change         ...    1.8628e-10  Tolerance :   1.0000e-12
  Last MAX-Density change    ...    3.1623e-06  Tolerance :   1.0000e-07
  Last RMS-Density change    ...    2.1999e-07  Tolerance :   5.0000e-09
  Last DIIS Error            ...    1.6617e-03  Tolerance :   5.0000e-07
  Last Orbital Gradient      ...    1.2915e-06  Tolerance :   1.0000e-05
  Last Orbital Rotation      ...    6.6606e-07  Tolerance :   1.0000e-05


----------------
ORBITAL ENERGIES
----------------

  NO   OCC          E(Eh)            E(eV) 
   0   2.0000     -11.206814      -304.9529 
   1   2.0000      -0.942767       -25.6540 
   2   2.0000      -0.544757       -14.8236 
   3   2.0000      -0.544757       -14.8236 
   4   2.0000      -0.544757       -14.8236 
   5   0.0000       0.030795         0.8380 
   6   0.0000       0.050474         1.3735 
   7   0.0000       0.050474         1.3735 
   8   0.0000       0.050474         1.3735 
   9   0.0000       0.123947         3.3728 
  10   0.0000       0.123947         3.3728 
  11   0.0000       0.123947         3.3728 
  12   0.0000       0.141896         3.8612 
  13   0.0000       0.222962         6.0671 
  14   0.0000       0.222962         6.0671 
  15   0.0000       0.228139         6.2080 
*Only the first 10 virtual orbitals were printed.

                    ********************************
                    * MULLIKEN POPULATION ANALYSIS *
                    ********************************

-----------------------
MULLIKEN ATOMIC CHARGES
-----------------------
   0 C :   -1.183985
   1 H :    0.295996
   2 H :    0.295997
   3 H :    0.295996
   4 H :    0.295996
Sum of atomic charges:    0.0000000

--------------------------------
MULLIKEN REDUCED ORBITAL CHARGES
--------------------------------
  0 C s       :     3.344476  s :     3.344476
      pz      :     1.234518  p :     3.703553
      px      :     1.234518
      py      :     1.234517
      dz2     :     0.043003  d :     0.129009
      dxz     :     0.014334
      dyz     :     0.014334
      dx2y2   :     0.028669
      dxy     :     0.028669
      f0      :     0.001974  f :     0.006947
      f+1     :     0.000257
      f-1     :     0.000257
      f+2     :     0.001285
      f-2     :     0.001285
      f+3     :     0.001888
      f-3     :     0.000000

  1 H s       :     0.660468  s :     0.660468
      pz      :     0.021029  p :     0.040365
      px      :     0.009668
      py      :     0.009668
      dz2     :    -0.001347  d :     0.003170
      dxz     :     0.002163
      dyz     :     0.002163
      dx2y2   :     0.000096
      dxy     :     0.000096

  2 H s       :     0.660468  s :     0.660468
      pz      :     0.010930  p :     0.040365
      px      :     0.019767
      py      :     0.009668
      dz2     :     0.000925  d :     0.003170
      dxz     :     0.000699
      dyz     :     0.000043
      dx2y2   :    -0.000712
      dxy     :     0.002216

  3 H s       :     0.660469  s :     0.660469
      pz      :     0.010930  p :     0.040365
      px      :     0.012193
      py      :     0.017242
      dz2     :     0.000925  d :     0.003170
      dxz     :     0.000207
      dyz     :     0.000535
      dx2y2   :     0.001484
      dxy     :     0.000020

  4 H s       :     0.660469  s :     0.660469
      pz      :     0.010930  p :     0.040365
      px      :     0.012193
      py      :     0.017242
      dz2     :     0.000925  d :     0.003170
      dxz     :     0.000207
      dyz     :     0.000535
      dx2y2   :     0.001484
      dxy     :     0.000020



                     *******************************
                     * LOEWDIN POPULATION ANALYSIS *
                     *******************************

----------------------
LOEWDIN ATOMIC CHARGES
----------------------
   0 C :    0.860546
   1 H :   -0.215137
   2 H :   -0.215137
   3 H :   -0.215136
   4 H :   -0.215136

-------------------------------
LOEWDIN REDUCED ORBITAL CHARGES
-------------------------------
  0 C s       :     2.484399  s :     2.484399
      pz      :     0.775800  p :     2.327401
      px      :     0.775800
      py      :     0.775800
      dz2     :     0.091490  d :     0.274469
      dxz     :     0.030497
      dyz     :     0.030497
      dx2y2   :     0.060993
      dxy     :     0.060993
      f0      :     0.015063  f :     0.053186
      f+1     :     0.001975
      f-1     :     0.001975
      f+2     :     0.009876
      f-2     :     0.009876
      f+3     :     0.014420
      f-3     :     0.000000

  1 H s       :     0.658237  s :     0.658237
      pz      :     0.155187  p :     0.333966
      px      :     0.089389
      py      :     0.089389
      dz2     :     0.053800  d :     0.222934
      dxz     :     0.081587
      dyz     :     0.081587
      dx2y2   :     0.002980
      dxy     :     0.002980

  2 H s       :     0.658237  s :     0.658237
      pz      :     0.096700  p :     0.333966
      px      :     0.147876
      py      :     0.089389
      dz2     :     0.044904  d :     0.222934
      dxz     :     0.058015
      dyz     :     0.001975
      dx2y2   :     0.035449
      dxy     :     0.082592

  3 H s       :     0.658237  s :     0.658237
      pz      :     0.096700  p :     0.333966
      px      :     0.104011
      py      :     0.133255
      dz2     :     0.044904  d :     0.222934
      dxz     :     0.015985
      dyz     :     0.044005
      dx2y2   :     0.070806
      dxy     :     0.047234

  4 H s       :     0.658237  s :     0.658237
      pz      :     0.096700  p :     0.333966
      px      :     0.104011
      py      :     0.133255
      dz2     :     0.044904  d :     0.222934
      dxz     :     0.015985
      dyz     :     0.044005
      dx2y2   :     0.070806
      dxy     :     0.047234



                      *****************************
                      * MAYER POPULATION ANALYSIS *
                      *****************************

  NA   - Mulliken gross atomic population
  ZA   - Total nuclear charge
  QA   - Mulliken gross atomic charge
  VA   - Mayer's total valence
  BVA  - Mayer's bonded valence
  FA   - Mayer's free valence

  ATOM       NA         ZA         QA         VA         BVA        FA
  0 C      7.1840     6.0000    -1.1840     3.6440     3.6440     0.0000
  1 H      0.7040     1.0000     0.2960     0.9839     0.9839     0.0000
  2 H      0.7040     1.0000     0.2960     0.9839     0.9839     0.0000
  3 H      0.7040     1.0000     0.2960     0.9839     0.9839    -0.0000
  4 H      0.7040     1.0000     0.2960     0.9839     0.9839     0.0000

  Mayer bond orders larger than 0.100000
B(  0-C ,  1-H ) :   0.9110 B(  0-C ,  2-H ) :   0.9110 B(  0-C ,  3-H ) :   0.9110 
B(  0-C ,  4-H ) :   0.9110 

-------
TIMINGS
-------

Total SCF time: 0 days 0 hours 0 min 5 sec 

Total time                  ....       5.893 sec
Sum of individual times     ....       5.333 sec  ( 90.5%)

SCF preparation             ....       0.754 sec  ( 12.8%)
Fock matrix formation       ....       3.796 sec  ( 64.4%)
  Startup                   ....       0.039 sec  (  1.0% of F)
  Coulomb+Exchange Fock     ....       3.877 sec  (102.1% of F)
Diagonalization             ....       0.000 sec  (  0.0%)
Density matrix formation    ....       0.184 sec  (  3.1%)
Total Energy calculation    ....       0.048 sec  (  0.8%)
Population analysis         ....       0.035 sec  (  0.6%)
Orbital Transformation      ....       0.042 sec  (  0.7%)
Orbital Orthonormalization  ....       0.000 sec  (  0.0%)
DIIS solution               ....       0.319 sec  (  5.4%)
SOSCF solution              ....       0.152 sec  (  2.6%)
Finished LeanSCF after   5.9 sec

Maximum memory used throughout the entire LEANSCF-calculation: 11.8 MB


           ************************************************************
           *        Program running with 8 parallel MPI-processes     *
           *              working on a common directory               *
           ************************************************************

------------------------------------------------------------------------------
                         ORCA PROPERTY INTEGRAL CALCULATIONS
------------------------------------------------------------------------------

GBWName                                   ... CH4_CCSD.gbw
Number of atoms                           ...      5
Number of basis functions                 ...    144
Max core memory                           ...   4096 MB

Dipole integrals                          ... YES
Quadrupole integrals                      ...  NO
Linear momentum integrals                 ...  NO
Angular momentum integrals                ...  NO
Higher moments length integrals           ...  NO
Higher moments velocity integrals         ...  NO
Kinetic energy integrals                  ...  NO
GIAO right hand sides                     ...  NO
GIAO dipole derivative integrals          ...  NO
SOC integrals                             ...  NO
EPR diamagnetic integrals (GIAO)          ...  NO
EPR gauge integrals                       ...  NO
Field gradient integrals                  ...  NO (   0 nuclei)
Spin-dipole/Fermi contact integrals       ...  NO (   0 nuclei)
Contact density integrals                 ...  NO (   0 nuclei)
Nucleus-orbit integrals                   ...  NO (   0 nuclei)
Geometric perturbations                   ...  NO (   5 nuclei)

Choice of electric origin   ... Center of mass
Position of electric origin ... ( -0.0000,  0.0000,  0.0000) 
Choice of magnetic origin   ... GIAO
Position of magnetic origin ... (  0.0000,  0.0000,  0.0000) 

Calculating integrals                     ... Electric Dipole (Length)     done (  0.0 sec)

Property integrals calculated in   0.0 sec

Maximum memory used throughout the entire PROPINT-calculation: 7.8 MB


           ************************************************************
           *        Program running with 8 parallel MPI-processes     *
           *              working on a common directory               *
           ************************************************************


--------------------------------------------------------------------------------
                             ORCA-MATRIX DRIVEN CI
--------------------------------------------------------------------------------

--------------------------------
AUTOMATIC CHOICE OF INCORE LEVEL
--------------------------------

Memory available                           ...   2048.00 MB
Memory needed for S+T                      ...      4.05 MB
Memory needed for J+K                      ...      8.12 MB
Memory needed for DIIS                     ...     56.68 MB
Memory needed for 3-ext                    ...     71.80 MB
Memory needed for 4-ext                    ...   1202.60 MB
Memory needed for triples                  ...     89.75 MB
 -> Final InCoreLevel    ... 5
 -> check shows that triples correction can be computed


Wavefunction type
-----------------
Correlation treatment                      ...      CCSD     
Single excitations                         ... ON
Orbital optimization                       ... OFF
Calculation of Z vector                    ... OFF
Calculation of Brueckner orbitals          ... OFF
Perturbative triple excitations            ... ON
Calculation of F12 correction              ... OFF
Frozen core treatment                      ... chemical core (2 el)
Reference Wavefunction                     ... RHF
  Internal Orbitals:     1 ...    4 (  4 MO's/  8 electrons)
  Virtual  Orbitals:     5 ...  137 (133 MO's              )
Number of AO's                             ...    138
Number of electrons                        ...     10
Number of correlated electrons             ...      8

Algorithmic settings
--------------------
Integral transformation                    ... AO direct full transformation
K(C) Formation                             ... FULL-MO TRAFO
Maximum number of iterations               ...       100
Convergence tolerance (max. residuum)      ... 1.000e-10
Level shift for amplitude update           ... 2.000e-01
Maximum number of DIIS vectors             ...         7
DIIS turned on at iteration                ...         0
Damping before turning on DIIS             ...     0.500
Damping after turning on DIIS              ...     0.000
Pair specific amplitude update             ... OFF
Natural orbital iterations                 ... OFF
Perturbative natural orbital generation    ... OFF
Printlevel                                 ... 2

Memory handling:
----------------
Maximum memory for working arrays          ...   2048 MB
Data storage in matrix containers          ... UNCOMPRESSED
Data type for integral storage             ... DOUBLE
In-Core Storage of quantities:
   Amplitudes+Sigma Vector      ... YES
   J+K operators                ... YES
   DIIS vectors                 ... YES
   3-external integrals         ... YES
   4-external integrals         ... YES


Initializing the integral package          ... done
Warning: reference  - re-canonicalizations have been set to INT 1 VIRT 1
Fock densities were made 
Making Fock matrix and reference energy:

--------------------------
CLOSED-SHELL FOCK OPERATOR
--------------------------

Recanonicalizing the internal orbitals
Recanonicalizing the virtual orbitals
Storing new orbitals
Time needed for Fock operator              ...            0.543 sec
Reference energy                           ...    -40.213575198

------------------------------
PARTIAL COULOMB TRANSFORMATION
------------------------------

Transformation type                        ... one-operator
Dimension of the basis                     ...  138
Number of internal MOs                     ...  137 (1-137)
Pair cutoff                                ... 0.000e+00 Eh
Number of AO pairs included in the trafo   ... 9591
Total Number of distinct AO pairs          ... 9591
Memory devoted for trafo                   ... 4096.0 MB 
Max. Number of MO pairs treated together   ... 55976      
Max. Number of MOs treated per batch       ...  405      
Number Format for Storage                  ... Double (8 Byte)
AO-integral source                         ... DIRECT
Integral package used                      ... LIBINT

Starting integral evaluation:
<ss|**>:       294525 b        0 skpd     0.125 s (  0.000 ms/b)
<sp|**>:       428400 b        0 skpd     0.356 s (  0.001 ms/b)
<sd|**>:       294525 b        0 skpd     0.407 s (  0.001 ms/b)
<sf|**>:        53550 b        0 skpd     0.141 s (  0.003 ms/b)
<pp|**>:       173400 b        0 skpd     0.443 s (  0.003 ms/b)
<pd|**>:       224400 b        0 skpd     0.973 s (  0.004 ms/b)
<pf|**>:        40800 b        0 skpd     0.239 s (  0.006 ms/b)
<dd|**>:        84150 b        0 skpd     0.506 s (  0.006 ms/b)
<df|**>:        28050 b        0 skpd     0.287 s (  0.010 ms/b)
<ff|**>:         3825 b        0 skpd     0.123 s (  0.032 ms/b)
Closing buffer AOJ ( 0.68 GB; CompressionRatio= 1.00)
Collecting buffer AOJ 
    ... done with AO integral generation
Number of MO pairs included in the trafo   ... 9453
    ... Now sorting integrals
IBATCH = 1 of  1
Closing buffer JAO ( 0.68 GB; CompressionRatio= 1.00)
Collecting buffer JAO 
TOTAL TIME for half transformation         ...     6.989 sec
AO-integral generation                     ...     0.559 sec
Half transformation                        ...     3.043 sec
J-integral sorting                         ...     3.254 sec

------------------
CLOSED SHELL GUESS
------------------

Initial guess performed in     0.014 sec
E(0)                                       ...    -40.213575198
E(MP2)                                     ...     -0.200863648
Initial E(tot)                             ...    -40.414438846
<T|T>                                      ...      0.061810225
Number of pairs included                   ... 10
Total number of pairs                      ... 10

------------------------------------------------
                  RHF COUPLED CLUSTER ITERATIONS
------------------------------------------------

Number of amplitudes to be optimized       ... 177422

Iter       E(tot)           E(Corr)          Delta-E          Residual     Time
  0    -40.414438846     -0.200863648      0.000000000      0.006886835    0.72
                           *** Turning on DIIS ***
  1    -40.427522445     -0.213947247     -0.013083599      0.002266137    0.99
  2    -40.433217935     -0.219642737     -0.005695490      0.000685689    0.93
  3    -40.434206597     -0.220631399     -0.000988662      0.000230075    0.94
  4    -40.434355230     -0.220780032     -0.000148633      0.000052602    1.16
  5    -40.434372382     -0.220797184     -0.000017152      0.000016900    1.06
  6    -40.434373983     -0.220798785     -0.000001601      0.000004621    1.12
  7    -40.434373851     -0.220798653      0.000000133      0.000001227    0.95
  8    -40.434373771     -0.220798573      0.000000080      0.000000367    0.93
  9    -40.434373776     -0.220798578     -0.000000005      0.000000122    0.93
 10    -40.434373780     -0.220798582     -0.000000004      0.000000031    0.94
 11    -40.434373780     -0.220798582      0.000000000      0.000000008    1.02
 12    -40.434373780     -0.220798582      0.000000000      0.000000002    1.04
 13    -40.434373780     -0.220798582     -0.000000000      0.000000001    0.95
 14    -40.434373780     -0.220798582     -0.000000000      0.000000000    1.02
 15    -40.434373780     -0.220798582     -0.000000000      0.000000000    0.94
               --- The Coupled-Cluster iterations have converged ---

----------------------
COUPLED CLUSTER ENERGY
----------------------

E(0)                                       ...    -40.213575198
E(CORR)                                    ...     -0.220798582
E(TOT)                                     ...    -40.434373780
Singles Norm <S|S>**1/2                    ...      0.021294693  
T1 diagnostic                              ...      0.007528811  

------------------
LARGEST AMPLITUDES
------------------
   4-> 29   4-> 29       0.018855
   2-> 31   2-> 31       0.017467
   4-> 29   4-> 15       0.016203
   4-> 15   4-> 29       0.016203
   4-> 34   4-> 34       0.015882
   2-> 17   2-> 31       0.015502
   2-> 31   2-> 17       0.015502
   4-> 15   4-> 15       0.014877
   2-> 17   2-> 17       0.014752
   4-> 40   4-> 40       0.014582
   4-> 40   4-> 29       0.014501
   4-> 29   4-> 40       0.014501
   2-> 35   2-> 35       0.014221
   3-> 30   3-> 30       0.014003
   2-> 38   2-> 38       0.013358
   3-> 39   3-> 39       0.013273


        !!!!!!!!!!!!!!!!!!!!!!!!!!!!!!!!!!!!!!!!!!!!!!!!!!!!!!!!!!!!!!!!!!!!!!!!!! 
        !  Warning: Densities are linearized densities !                         !
        !!!!!!!!!!!!!!!!!!!!!!!!!!!!!!!!!!!!!!!!!!!!!!!!!!!!!!!!!!!!!!!!!!!!!!!!!! 

Trace of internal density part =     -0.159211457
Trace of external density part =      0.159211457
----------------------
RHF TRIPLES CORRECTION (Algorithm 1)
----------------------

Multiplier for the singles contribution    ...      1.000000000
Fock matrix occ-virt block is zero --> Setting DT_in_Triples to false.

10% done
20% done
30% done
40% done
50% done
60% done
70% done
80% done
90% done

Triples Correction (T)                     ...     -0.006554370
Scaling of triples based on CCSD energies (Peterson et al. Molecular Physics 113, 1551 (2015))
E(T*) = f*E(T) where f = E(F12-CCSD)/E(CCSD) 
f = CCSD (with F12)/ CCSD (without F12)    ...      1.000000000
Scaled triples correction (T)              ...     -0.006554370

Final correlation energy                   ...     -0.227352953
E(CCSD)                                    ...    -40.434373780
E(CCSD(T))                                 ...    -40.440928151

NORM  =      1.080059193 sqrt=     1.039258963
W(HF) =      0.925875181
------------------------------------------------------------------------------
                           ORCA POPULATION ANALYSIS
------------------------------------------------------------------------------
Input electron density              ... CH4_CCSD.mdcip
BaseName (.gbw .S,...)              ... CH4_CCSD

                    ********************************
                    * MULLIKEN POPULATION ANALYSIS *
                    ********************************

-----------------------
MULLIKEN ATOMIC CHARGES
-----------------------
   0 C :   -1.259047
   1 H :    0.314762
   2 H :    0.314762
   3 H :    0.314762
   4 H :    0.314762
Sum of atomic charges:    0.0000000

--------------------------------
MULLIKEN REDUCED ORBITAL CHARGES
--------------------------------
  0 C s       :     3.360568  s :     3.360568
      pz      :     1.247508  p :     3.742524
      px      :     1.247508
      py      :     1.247508
      dz2     :     0.043468  d :     0.145008
      dxz     :     0.019357
      dyz     :     0.019357
      dx2y2   :     0.031413
      dxy     :     0.031413
      f0      :     0.001907  f :     0.010948
      f+1     :     0.000965
      f-1     :     0.000965
      f+2     :     0.002213
      f-2     :     0.002213
      f+3     :     0.002031
      f-3     :     0.000653
  1 H s       :     0.638050  s :     0.638050
      pz      :     0.017613  p :     0.043954
      px      :     0.013170
      py      :     0.013170
      dz2     :    -0.001296  d :     0.003234
      dxz     :     0.002061
      dyz     :     0.002061
      dx2y2   :     0.000204
      dxy     :     0.000204
  2 H s       :     0.638050  s :     0.638050
      pz      :     0.013664  p :     0.043954
      px      :     0.017119
      py      :     0.013170
      dz2     :     0.000939  d :     0.003234
      dxz     :     0.000678
      dyz     :     0.000147
      dx2y2   :    -0.000648
      dxy     :     0.002119
  3 H s       :     0.638050  s :     0.638050
      pz      :     0.013664  p :     0.043954
      px      :     0.014158
      py      :     0.016132
      dz2     :     0.000939  d :     0.003234
      dxz     :     0.000280
      dyz     :     0.000545
      dx2y2   :     0.001427
      dxy     :     0.000044
  4 H s       :     0.638050  s :     0.638050
      pz      :     0.013664  p :     0.043954
      px      :     0.014158
      py      :     0.016132
      dz2     :     0.000939  d :     0.003234
      dxz     :     0.000280
      dyz     :     0.000545
      dx2y2   :     0.001427
      dxy     :     0.000044


                     *******************************
                     * LOEWDIN POPULATION ANALYSIS *
                     *******************************

----------------------
LOEWDIN ATOMIC CHARGES
----------------------
   0 C :    0.838238
   1 H :   -0.209560
   2 H :   -0.209560
   3 H :   -0.209559
   4 H :   -0.209559

-------------------------------
LOEWDIN REDUCED ORBITAL CHARGES
-------------------------------
  0 C s       :     2.484295  s :     2.484295
      pz      :     0.778007  p :     2.334021
      px      :     0.778007
      py      :     0.778007
      dz2     :     0.090829  d :     0.282684
      dxz     :     0.033675
      dyz     :     0.033675
      dx2y2   :     0.062252
      dxy     :     0.062252
      f0      :     0.016478  f :     0.060763
      f+1     :     0.002980
      f-1     :     0.002980
      f+2     :     0.010784
      f-2     :     0.010784
      f+3     :     0.015729
      f-3     :     0.001028
  1 H s       :     0.645536  s :     0.645536
      pz      :     0.157765  p :     0.342370
      px      :     0.092302
      py      :     0.092302
      dz2     :     0.054705  d :     0.221655
      dxz     :     0.080403
      dyz     :     0.080403
      dx2y2   :     0.003072
      dxy     :     0.003072
  2 H s       :     0.645536  s :     0.645536
      pz      :     0.099576  p :     0.342370
      px      :     0.150491
      py      :     0.092302
      dz2     :     0.043777  d :     0.221655
      dxz     :     0.058119
      dyz     :     0.002623
      dx2y2   :     0.036284
      dxy     :     0.080851
  3 H s       :     0.645535  s :     0.645535
      pz      :     0.099576  p :     0.342369
      px      :     0.106849
      py      :     0.135944
      dz2     :     0.043777  d :     0.221655
      dxz     :     0.016497
      dyz     :     0.044245
      dx2y2   :     0.069710
      dxy     :     0.047426
  4 H s       :     0.645535  s :     0.645535
      pz      :     0.099576  p :     0.342369
      px      :     0.106849
      py      :     0.135944
      dz2     :     0.043777  d :     0.221655
      dxz     :     0.016497
      dyz     :     0.044245
      dx2y2   :     0.069710
      dxy     :     0.047426


                      *****************************
                      * MAYER POPULATION ANALYSIS *
                      *****************************

  NA   - Mulliken gross atomic population
  ZA   - Total nuclear charge
  QA   - Mulliken gross atomic charge
  VA   - Mayer's total valence
  BVA  - Mayer's bonded valence
  FA   - Mayer's free valence

  ATOM       NA         ZA         QA         VA         BVA        FA
  0 C      7.2590     6.0000    -1.2590     3.7404     3.3628     0.3777
  1 H      0.6852     1.0000     0.3148     0.9811     0.9193     0.0618
  2 H      0.6852     1.0000     0.3148     0.9811     0.9193     0.0618
  3 H      0.6852     1.0000     0.3148     0.9811     0.9193     0.0618
  4 H      0.6852     1.0000     0.3148     0.9811     0.9193     0.0618

  Mayer bond orders larger than 0.100000
B(  0-C ,  1-H ) :   0.8407 B(  0-C ,  2-H ) :   0.8407 B(  0-C ,  3-H ) :   0.8407 
B(  0-C ,  4-H ) :   0.8407 



--------------------------------------------------------------------------------
                                    TIMINGS
--------------------------------------------------------------------------------


Total execution time                   ...       71.802 sec

Fock Matrix Formation                  ...        0.543 sec (  0.8%)
Initial Guess                          ...        0.014 sec (  0.0%)
DIIS Solver                            ...        0.198 sec (  0.3%)
State Vector Update                    ...        0.010 sec (  0.0%)
Sigma-vector construction              ...       15.439 sec ( 21.5%)
  <0|H|D>                              ...        0.018 sec (  0.1% of sigma)
  <D|H|D>(0-ext)                       ...        0.020 sec (  0.1% of sigma)
  <D|H|D>(2-ext Fock)                  ...        0.012 sec (  0.1% of sigma)
  <D|H|D>(2-ext)                       ...        0.159 sec (  1.0% of sigma)
  <D|H|D>(4-ext)                       ...        4.008 sec ( 26.0% of sigma)
  <D|H|D>(4-ext-corr)                  ...        1.383 sec (  9.0% of sigma)
  <S|H|0>                              ...        0.004 sec (  0.0% of sigma)
  <S|H|S>                              ...        0.049 sec (  0.3% of sigma)
  <S|H|D>(1-ext)                       ...        0.039 sec (  0.3% of sigma)
  <D|H|S>(1-ext)                       ...        0.122 sec (  0.8% of sigma)
  <S|H|D>(3-ext)                       ...        0.631 sec (  4.1% of sigma)
  Fock-dressing                        ...        7.460 sec ( 48.3% of sigma)
  (ik|jl)-dressing                     ...        0.077 sec (  0.5% of sigma)
  (ij|ab),(ia|jb)-dressing             ...        1.154 sec (  7.5% of sigma)
  Pair energies                        ...        0.021 sec (  0.1% of sigma)
Total Time for computing (T)           ...        0.655 sec (  0.9% of ALL)
  I/O of integral and amplitudes       ...        0.131 sec ( 20.0% of (T))
  N**6 sorting step                    ...        0.142 sec ( 21.7% of (T))
  External N**7 contributions          ...        0.286 sec ( 43.7% of (T))
  Internal N**7 contributions          ...        0.040 sec (  6.1% of (T))
  N**6 triples energy contributions    ...        0.056 sec (  8.5% of (T))
One-particle density matrix            ...        0.002 sec (  0.0%)


Maximum memory used throughout the entire MDCI-calculation: 1249.5 MB

-------------------------   --------------------
FINAL SINGLE POINT ENERGY       -40.440928150569
-------------------------   --------------------


----------------------------------------------------------------------------
                           ORCA NUMERICAL GRADIENT
                              (8-process run)
----------------------------------------------------------------------------

I state                        ... 1
Number of atoms                ... 5
Derivative's order of accuracy ... 2
Central differences            ... used
Translation invariance         ... used
Dummy atoms                    ... 0
Constrained atoms              ... 0
Number of displacements        ... 24
Numerical increment            ... 5.000e-03 bohr

The output will be reduced. Please look at the following files:
SCF program output             ... >CH4_CCSD.lastscf
Integral program output        ... >CH4_CCSD.lastint
Gradient program output        ... >CH4_CCSD.lastgrad

List of participating nodes    ...  CH4_CCSD.hostnames

	<< Calculating energy on displaced geometry   5 (of  24) >>
	<< Calculating energy on displaced geometry   1 (of  24) >>
	<< Calculating energy on displaced geometry   4 (of  24) >>
	<< Calculating energy on displaced geometry   8 (of  24) >>
	<< Calculating energy on displaced geometry   7 (of  24) >>
	<< Calculating energy on displaced geometry   3 (of  24) >>
	<< Calculating energy on displaced geometry   6 (of  24) >>
	<< Calculating energy on displaced geometry   2 (of  24) >>
	<< Calculating energy on displaced geometry   9 (of  24) >>
	<< Calculating energy on displaced geometry  10 (of  24) >>
	<< Calculating energy on displaced geometry  11 (of  24) >>
	<< Calculating energy on displaced geometry  12 (of  24) >>
	<< Calculating energy on displaced geometry  13 (of  24) >>
	<< Calculating energy on displaced geometry  14 (of  24) >>
	<< Calculating energy on displaced geometry  15 (of  24) >>
	<< Calculating energy on displaced geometry  16 (of  24) >>
	<< Calculating energy on displaced geometry  17 (of  24) >>
	<< Calculating energy on displaced geometry  18 (of  24) >>
	<< Calculating energy on displaced geometry  19 (of  24) >>
	<< Calculating energy on displaced geometry  20 (of  24) >>
	<< Calculating energy on displaced geometry  21 (of  24) >>
	<< Calculating energy on displaced geometry  22 (of  24) >>
	<< Calculating energy on displaced geometry  23 (of  24) >>
	<< Calculating energy on displaced geometry  24 (of  24) >>

------------------------------
CARTESIAN GRADIENT (NUMERICAL)
-------------------------------
   1   C   :    0.000004468    0.000000000    0.000006018
   2   H   :    0.000000002   -0.000000000   -0.000605415
   3   H   :   -0.000570185   -0.000000000    0.000200118
   4   H   :    0.000283113   -0.000492530    0.000200009
   5   H   :    0.000282601    0.000492530    0.000199270

Norm of the Cartesian gradient     ...    0.001206915
RMS gradient                       ...    0.000311624
MAX gradient                       ...    0.000605415

-------
TIMINGS
-------

Total numerical gradient time      ...      705.003 sec

------------------------------------------------------------------------------
                         ORCA GEOMETRY RELAXATION STEP
------------------------------------------------------------------------------

Reading the OPT-File                    .... done
Getting information on internals        .... done
Copying old internal coords+grads       .... done
Making the new internal coordinates     .... (2022 redundants) done
Validating the new internal coordinates .... (2022 redundants) done
Calculating the B-matrix                .... done
Calculating the G,G- and P matrices     .... done
Transforming gradient to internals      .... done
Projecting the internal gradient        .... done
Number of atoms                         ....   5
Number of internal coordinates          ....  10
Current Energy                          ....   -40.440928151 Eh
Current gradient norm                   ....     0.001206915 Eh/bohr
Maximum allowed component of the step   ....  0.300
Current trust radius                    ....  0.300
Evaluating the initial hessian          ....  (Almloef) done
Projecting the Hessian                  .... done
Forming the augmented Hessian           .... done
Diagonalizing the augmented Hessian     .... done
Last element of RFO vector              ....  0.999994425
Lowest eigenvalues of augmented Hessian:
 -0.000004030  0.291175228  0.291175283  0.291175287  0.291175291
Length of the computed step             ....  0.003339237
The final length of the internal step   ....  0.003339237
Converting the step to Cartesian space:
 Initial RMS(Int)=    0.0010559596
Transforming coordinates:
 Iter   0:  RMS(Cart)=    0.0008621826 RMS(Int)=    0.0010559596
done
Storing new coordinates                 .... done

                                .--------------------.
          ----------------------|Geometry convergence|-------------------------
          Item                value                   Tolerance       Converged
          ---------------------------------------------------------------------
          RMS gradient        0.0003816534            0.0000010000      NO
          MAX gradient        0.0006054153            0.0000030000      NO
          RMS step            0.0010559596            0.0000200000      NO
          MAX step            0.0016750585            0.0000400000      NO
          -------------------------------------------------------------------------
          ........................................................
          Max(Bonds)      0.0009      Max(Angles)    0.00
          Max(Dihed)        0.00      Max(Improp)    0.00
          ---------------------------------------------------------------------

The optimization has not yet converged - more geometry cycles are needed


    ---------------------------------------------------------------------------
                         Redundant Internal Coordinates
                            (Angstroem and degrees)

        Definition                    Value    dE/dq     Step     New-Value
    ----------------------------------------------------------------------------
     1. B(H   1,C   0)                1.0890 -0.000605  0.0009    1.0899   
     2. B(H   2,C   0)                1.0890 -0.000604  0.0009    1.0899   
     3. B(H   3,C   0)                1.0890 -0.000602  0.0009    1.0899   
     4. B(H   4,C   0)                1.0890 -0.000602  0.0009    1.0899   
     5. A(H   1,C   0,H   3)          109.47  0.000001   -0.00    109.47   
     6. A(H   2,C   0,H   3)          109.47 -0.000000    0.00    109.47   
     7. A(H   1,C   0,H   4)          109.47  0.000001   -0.00    109.47   
     8. A(H   2,C   0,H   4)          109.47 -0.000000    0.00    109.47   
     9. A(H   3,C   0,H   4)          109.47 -0.000003    0.00    109.47   
    10. A(H   1,C   0,H   2)          109.47  0.000002   -0.00    109.47   
    ----------------------------------------------------------------------------

Geometry step timings:
Preparation and reading OPT file:      0.000 s ( 0.988 %)
Internal coordinates            :      0.000 s ( 0.123 %)
B/P matrices and projection     :      0.000 s ( 0.657 %)
Hessian update/contruction      :      0.016 s (67.884 %)
Making the step                 :      0.003 s (11.908 %)
Converting the step to Cartesian:      0.000 s ( 0.297 %)
Storing new data                :      0.002 s ( 7.799 %)
Checking convergence            :      0.000 s ( 0.199 %)
Final printing                  :      0.002 s (10.131 %)
Total time                      :      0.024 s

Time for energy+gradient        :    789.849 s
Time for complete geometry iter :    791.271 s

         *************************************************************
         *                GEOMETRY OPTIMIZATION CYCLE   2            *
         *************************************************************
---------------------------------
CARTESIAN COORDINATES (ANGSTROEM)
---------------------------------
  C     -0.000002    0.000000   -0.000003
  H     -0.000000   -0.000001    1.089883
  H      1.027552   -0.000000   -0.363294
  H     -0.513776    0.889888   -0.363293
  H     -0.513775   -0.889888   -0.363292

----------------------------
CARTESIAN COORDINATES (A.U.)
----------------------------
  NO LB      ZA    FRAG     MASS         X           Y           Z
   0 C     6.0000    0    12.011   -0.000005    0.000000   -0.000006
   1 H     1.0000    0     1.008   -0.000001   -0.000001    2.059580
   2 H     1.0000    0     1.008    1.941792   -0.000000   -0.686526
   3 H     1.0000    0     1.008   -0.970895    1.681645   -0.686525
   4 H     1.0000    0     1.008   -0.970894   -1.681644   -0.686523

--------------------------------
INTERNAL COORDINATES (ANGSTROEM)
--------------------------------
 C      0   0   0     0.000000000000     0.00000000     0.00000000
 H      1   0   0     1.089886402802     0.00000000     0.00000000
 H      1   2   0     1.089884698716   109.47087411     0.00000000
 H      1   2   3     1.089882220598   109.47107589   240.00018948
 H      1   2   3     1.089881506681   109.47097015   119.99970428

---------------------------
INTERNAL COORDINATES (A.U.)
---------------------------
 C      0   0   0     0.000000000000     0.00000000     0.00000000
 H      1   0   0     2.059586818380     0.00000000     0.00000000
 H      1   2   0     2.059583598124   109.47087411     0.00000000
 H      1   2   3     2.059578915160   109.47107589   240.00018948
 H      1   2   3     2.059577566052   109.47097015   119.99970428



           ************************************************************
           *        Program running with 8 parallel MPI-processes     *
           *              working on a common directory               *
           ************************************************************
------------------------------------------------------------------------------
                   ___                                                        
                  /   \      - P O W E R E D   B Y -                         
                 /     \                                                     
                 |  |  |   _    _      __       _____    __    __             
                 |  |  |  | |  | |    /  \     |  _  \  |  |  /  |          
                  \  \/   | |  | |   /    \    | | | |  |  | /  /          
                 / \  \   | |__| |  /  /\  \   | |_| |  |  |/  /          
                |  |  |   |  __  | /  /__\  \  |    /   |      \           
                |  |  |   | |  | | |   __   |  |    \   |  |\   \          
                \     /   | |  | | |  |  |  |  | |\  \  |  | \   \       
                 \___/    |_|  |_| |__|  |__|  |_| \__\ |__|  \__/        
                                                                              
                      - O R C A' S   B I G   F R I E N D -                    
                                      &                                       
                       - I N T E G R A L  F E E D E R -                       
                                                                              
 v1 FN, 2020, v2 2021, v3 2022-2024                                           
------------------------------------------------------------------------------


----------------------
SHARK INTEGRAL PACKAGE
----------------------

Number of atoms                             ...      5
Number of basis functions                   ...    144
Number of shells                            ...     56
Maximum angular momentum                    ...      3
Integral batch strategy                     ... SHARK/LIBINT Hybrid
RI-J (if used) integral strategy            ... SPLIT-RIJ (Revised 2003 algorithm where possible)
Printlevel                                  ...      1
Contraction scheme used                     ... PARTIAL GENERAL contraction
Prescreening option                         ... SCHWARTZ
   Thresh                                   ... 1.000e-18
   Tcut                                     ... 1.000e-20
   Tpresel                                  ... 1.000e-20 
Coulomb Range Separation                    ... NOT USED
Exchange Range Separation                   ... NOT USED
Multipole approximations                    ... NOT USED
Finite Nucleus Model                        ... NOT USED
CABS basis                                  ... NOT available
Auxiliary Coulomb fitting basis             ... NOT available
Auxiliary J/K fitting basis                 ... NOT available
Auxiliary Correlation fitting basis         ... NOT available
Auxiliary 'external' fitting basis          ... NOT available

Checking pre-screening integrals            ... done (  0.0 sec) Dimension = 56
Save PGC pre-screening integrals            ... done (  0.0 sec) Dimension = 56
Calculate PGC overlap integrals             ... done (  0.1 sec) Dimension = 50
Calculating pre-screening integrals (ORCA)  ... done (  0.1 sec) Dimension = 50
Shell pair information
Shell pair cut-off parameter TPreSel        ...   1.0e-20
Total number of shell pairs                 ...      1596
Shell pairs after pre-screening             ...      1596
Total number of primitive shell pairs       ...      2226
Primitive shell pairs kept                  ...      2184
          la=0 lb=0:    378 shell pairs
          la=1 lb=0:    432 shell pairs
          la=1 lb=1:    136 shell pairs
          la=2 lb=0:    297 shell pairs
          la=2 lb=1:    176 shell pairs
          la=2 lb=2:     66 shell pairs
          la=3 lb=0:     54 shell pairs
          la=3 lb=1:     32 shell pairs
          la=3 lb=2:     22 shell pairs
          la=3 lb=3:      3 shell pairs

[...]
Rotational constants in MHz :        158273.384018        158272.378223        158271.867126 

Dipole components along the rotational axes: 
x,y,z [a.u.] :     0.000001     0.000001     0.000002 
x,y,z [Debye]:     0.000002     0.000002     0.000006 

 

Dipole moment calculation done in   0.0 sec 

Maximum memory used throughout the entire PROP-calculation: 11.1 MB

----------------------------------------------------------------------------
                           ORCA NUMERICAL FREQUENCIES
                              (8-process run)
----------------------------------------------------------------------------

Number of atoms                ... 5
Central differences            ... used
Translation invariance         ... used
Number of displacements        ... 30 - 6
Numerical increment            ... 5.000e-03 bohr
IR-spectrum generation         ... on
Raman-spectrum generation      ... off
Surface Crossing Hessian       ... off

The output will be reduced. Please look at the following files:
SCF program output             ... >CH4_CCSD.lastscf
Integral program output        ... >CH4_CCSD.lastint
Gradient program output        ... >CH4_CCSD.lastgrad
Dipole moment program output   ... >CH4_CCSD.lastmom

List of participating nodes    ...  CH4_CCSD.hostnames

	<< Calculating energy on displaced geometry   2 (of  24) >>
	<< Calculating energy on displaced geometry   1 (of  24) >>
	<< Calculating energy on displaced geometry   5 (of  24) >>
	<< Calculating energy on displaced geometry   6 (of  24) >>
	<< Calculating energy on displaced geometry   3 (of  24) >>
	<< Calculating energy on displaced geometry   8 (of  24) >>
	<< Calculating energy on displaced geometry   4 (of  24) >>
	<< Calculating energy on displaced geometry   7 (of  24) >>
	<< Calculating energy on displaced geometry   9 (of  24) >>
	<< Calculating energy on displaced geometry  10 (of  24) >>
	<< Calculating energy on displaced geometry  11 (of  24) >>
	<< Calculating energy on displaced geometry  12 (of  24) >>
	<< Calculating energy on displaced geometry  13 (of  24) >>
	<< Calculating energy on displaced geometry  14 (of  24) >>
	<< Calculating energy on displaced geometry  16 (of  24) >>
	<< Calculating energy on displaced geometry  15 (of  24) >>
	<< Calculating energy on displaced geometry  17 (of  24) >>
	<< Calculating energy on displaced geometry  18 (of  24) >>
	<< Calculating energy on displaced geometry  19 (of  24) >>
	<< Calculating energy on displaced geometry  20 (of  24) >>
	<< Calculating energy on displaced geometry  21 (of  24) >>
	<< Calculating energy on displaced geometry  22 (of  24) >>
	<< Calculating energy on displaced geometry  23 (of  24) >>
	<< Calculating energy on displaced geometry  24 (of  24) >>
List of participating nodes    ...  CH4_CCSD.hostnames

	<< Calculating gradient on displaced geometry   5 (of  24) >>
	<< Calculating gradient on displaced geometry   2 (of  24) >>
	<< Calculating gradient on displaced geometry   6 (of  24) >>
	<< Calculating gradient on displaced geometry   3 (of  24) >>
	<< Calculating gradient on displaced geometry   7 (of  24) >>
	<< Calculating gradient on displaced geometry   1 (of  24) >>
	<< Calculating gradient on displaced geometry   4 (of  24) >>
	<< Calculating gradient on displaced geometry   8 (of  24) >>
	<< Calculating gradient on displaced geometry   9 (of  24) >>
	<< Calculating gradient on displaced geometry  10 (of  24) >>
	<< Calculating gradient on displaced geometry  11 (of  24) >>
	<< Calculating gradient on displaced geometry  12 (of  24) >>
	<< Calculating gradient on displaced geometry  13 (of  24) >>
	<< Calculating gradient on displaced geometry  14 (of  24) >>
	<< Calculating gradient on displaced geometry  15 (of  24) >>
	<< Calculating gradient on displaced geometry  16 (of  24) >>
	<< Calculating gradient on displaced geometry  17 (of  24) >>
	<< Calculating gradient on displaced geometry  18 (of  24) >>
	<< Calculating gradient on displaced geometry  19 (of  24) >>
	<< Calculating gradient on displaced geometry  20 (of  24) >>
	<< Calculating gradient on displaced geometry  21 (of  24) >>
	<< Calculating gradient on displaced geometry  22 (of  24) >>
	<< Calculating gradient on displaced geometry  23 (of  24) >>
	<< Calculating gradient on displaced geometry  24 (of  24) >>

-----------------------
VIBRATIONAL FREQUENCIES
-----------------------

Scaling factor for frequencies =  1.000000000  (already applied!)

     0:       0.00 cm**-1
     1:       0.00 cm**-1
     2:       0.00 cm**-1
     3:       0.00 cm**-1
     4:       0.00 cm**-1
     5:       0.00 cm**-1
     6:    1350.41 cm**-1
     7:    1350.42 cm**-1
     8:    1350.46 cm**-1
     9:    1573.56 cm**-1
    10:    1573.58 cm**-1
    11:    3027.30 cm**-1
    12:    3146.18 cm**-1
    13:    3146.19 cm**-1
    14:    3146.20 cm**-1


------------
NORMAL MODES
------------

These modes are the Cartesian displacements weighted by the diagonal matrix
M(i,i)=1/sqrt(m[i]) where m[i] is the mass of the displaced atom
Thus, these vectors are normalized but *not* orthogonal

                  0          1          2          3          4          5    
      0       0.000000   0.000000   0.000000   0.000000   0.000000   0.000000
      1       0.000000   0.000000   0.000000   0.000000   0.000000   0.000000
      2       0.000000   0.000000   0.000000   0.000000   0.000000   0.000000
      3       0.000000   0.000000   0.000000   0.000000   0.000000   0.000000
      4       0.000000   0.000000   0.000000   0.000000   0.000000   0.000000
      5       0.000000   0.000000   0.000000   0.000000   0.000000   0.000000
      6       0.000000   0.000000   0.000000   0.000000   0.000000   0.000000
      7       0.000000   0.000000   0.000000   0.000000   0.000000   0.000000
      8       0.000000   0.000000   0.000000   0.000000   0.000000   0.000000
      9       0.000000   0.000000   0.000000   0.000000   0.000000   0.000000
     10       0.000000   0.000000   0.000000   0.000000   0.000000   0.000000
     11       0.000000   0.000000   0.000000   0.000000   0.000000   0.000000
     12       0.000000   0.000000   0.000000   0.000000   0.000000   0.000000
     13       0.000000   0.000000   0.000000   0.000000   0.000000   0.000000
     14       0.000000   0.000000   0.000000   0.000000   0.000000   0.000000
                  6          7          8          9         10         11    
      0       0.045329   0.115783  -0.015097  -0.000015   0.000001  -0.000006
      1      -0.011171  -0.011819  -0.124192   0.000001  -0.000002   0.000001
      2       0.116228  -0.046292  -0.006050  -0.000003  -0.000002  -0.000009
      3      -0.218643  -0.558513   0.072827   0.500072  -0.002477  -0.000005
      4       0.053900   0.057011   0.599140   0.002463   0.500007   0.000001
      5       0.082757  -0.032958  -0.004307  -0.000004   0.000000  -0.499897
      6      -0.197809   0.091778   0.009062   0.166662  -0.000821  -0.471378
      7       0.053893   0.057030   0.599161  -0.002477  -0.499985  -0.000000
      8      -0.568058  -0.006544   0.051728   0.471444  -0.002325   0.166647
      9      -0.038032  -0.431258   0.313657  -0.334708  -0.287025   0.235733
     10      -0.259083  -0.163614   0.182049  -0.288626   0.001426  -0.408318
     11      -0.432980   0.313354   0.199465  -0.233685   0.409417   0.166683
     12      -0.085643  -0.481642  -0.215660  -0.331850   0.290306   0.235724
     13       0.284406   0.190405   0.099478   0.288623  -0.001425   0.408302
     14      -0.466655   0.277748  -0.174798  -0.237715  -0.407074   0.166676
                 12         13         14    
      0       0.033559   0.080856  -0.027194
      1      -0.084195   0.036099   0.003433
      2       0.013737   0.023719   0.087476
      3       0.007798   0.018791  -0.006321
      4      -0.019567   0.008391   0.000799
      5      -0.129180  -0.223051  -0.822472
      6      -0.238024  -0.601868   0.491368
      7      -0.019568   0.008391   0.000798
      8       0.090101   0.224941  -0.155619
      9      -0.397024  -0.056333  -0.067774
     10       0.681622   0.138524   0.107240
     11      -0.283058  -0.047610  -0.023119
     12       0.227376  -0.324047  -0.093235
     13       0.360753  -0.585445  -0.149745
     14       0.158454  -0.236909  -0.041123


-----------
IR SPECTRUM
-----------

 Mode   freq       eps      Int      T**2         TX        TY        TZ
       cm**-1   L/(mol*cm) km/mol    a.u.
----------------------------------------------------------------------------
  6:   1350.41   0.002248   11.36  0.000519  (-0.008248  0.002031 -0.021148)
  7:   1350.42   0.002247   11.36  0.000519  (-0.021066  0.002149  0.008423)
  8:   1350.46   0.002248   11.36  0.000519  ( 0.002748  0.022599  0.001101)
  9:   1573.56   0.000000    0.00  0.000000  ( 0.000006 -0.000002  0.000001)
 10:   1573.58   0.000000    0.00  0.000000  (-0.000002  0.000000  0.000001)
 11:   3027.30   0.000000    0.00  0.000000  (-0.000002 -0.000002 -0.000002)
 12:   3146.18   0.003310   16.73  0.000328  ( 0.006632 -0.016643  0.002715)
 13:   3146.19   0.003311   16.73  0.000328  ( 0.015983  0.007138  0.004689)
 14:   3146.20   0.003310   16.73  0.000328  (-0.005375  0.000679  0.017291)

* The epsilon (eps) is given for a Dirac delta lineshape.
** The dipole moment derivative (T) already includes vibrational overlap.

The first frequency considered to be a vibration is 6
The total number of vibrations considered is 9


--------------------------
THERMOCHEMISTRY AT 298.15K
--------------------------

Temperature         ...   298.15 K
Pressure            ...     1.00 atm
Total Mass          ...    16.04 AMU
Quasi RRHO          ...     True
Cut-Off Frequency   ...     1.00 cm^-1

Throughout the following assumptions are being made:
  (1) The electronic state is orbitally nondegenerate
  (2) There are no thermally accessible electronically excited states
  (3) Hindered rotations indicated by low frequency modes are not
      treated as such but are treated as vibrations and this may
      cause some error
  (4) All equations used are the standard statistical mechanics
      equations for an ideal gas
  (5) All vibrations are strictly harmonic

freq.    1350.41  E(vib)   ...       0.01 
freq.    1350.42  E(vib)   ...       0.01 
freq.    1350.46  E(vib)   ...       0.01 
freq.    1573.56  E(vib)   ...       0.00 
freq.    1573.58  E(vib)   ...       0.00 
freq.    3027.30  E(vib)   ...       0.00 
freq.    3146.18  E(vib)   ...       0.00 
freq.    3146.19  E(vib)   ...       0.00 
freq.    3146.20  E(vib)   ...       0.00 

------------
INNER ENERGY
------------

The inner energy is: U= E(el) + E(ZPE) + E(vib) + E(rot) + E(trans)
    E(el)   - is the total energy from the electronic structure calculation
              = E(kin-el) + E(nuc-el) + E(el-el) + E(nuc-nuc)
    E(ZPE)  - the the zero temperature vibrational energy from the frequency calculation
    E(vib)  - the the finite temperature correction to E(ZPE) due to population
              of excited vibrational states
    E(rot)  - is the rotational thermal energy
    E(trans)- is the translational thermal energy

Summary of contributions to the inner energy U:
Electronic energy                ...    -40.44093021 Eh
Zero point energy                ...      0.04479855 Eh      28.11 kcal/mol
Thermal vibrational correction   ...      0.00003458 Eh       0.02 kcal/mol
Thermal rotational correction    ...      0.00141627 Eh       0.89 kcal/mol
Thermal translational correction ...      0.00141627 Eh       0.89 kcal/mol
-----------------------------------------------------------------------
Total thermal energy                    -40.39326453 Eh


Summary of corrections to the electronic energy:
(perhaps to be used in another calculation)
Total thermal correction                  0.00286712 Eh       1.80 kcal/mol
Non-thermal (ZPE) correction              0.04479855 Eh      28.11 kcal/mol
-----------------------------------------------------------------------
Total correction                          0.04766568 Eh      29.91 kcal/mol


--------
ENTHALPY
--------

The enthalpy is H = U + kB*T
                kB is Boltzmann's constant
Total thermal energy              ...    -40.39326453 Eh 
Thermal Enthalpy correction       ...      0.00094421 Eh       0.59 kcal/mol
-----------------------------------------------------------------------
Total Enthalpy                    ...    -40.39232033 Eh


Note: Rotational entropy computed according to Herzberg 
Infrared and Raman Spectra, Chapter V,1, Van Nostrand Reinhold, 1945 
Point Group:  Td, Symmetry Number:  12  
Rotational constants in cm-1:     5.279436     5.279403     5.279386 

Vibrational entropy computed according to the QRRHO of S. Grimme
Chem.Eur.J. 2012 18 9955 using a reference frequency of 100.0 cm-1


-------
ENTROPY
-------

The entropy contributions are T*S = T*(S(el)+S(vib)+S(rot)+S(trans))
     S(el)   - electronic entropy
     S(vib)  - vibrational entropy
     S(rot)  - rotational entropy
     S(trans)- translational entropy
The entropies will be listed as multiplied by the temperature to get
units of energy

Electronic entropy                ...      0.00000000 Eh      0.00 kcal/mol
Vibrational entropy               ...      0.00003974 Eh      0.02 kcal/mol
Rotational entropy                ...      0.00480820 Eh      3.02 kcal/mol
Translational entropy             ...      0.01627961 Eh     10.22 kcal/mol
-----------------------------------------------------------------------
Final entropy term                ...      0.02112754 Eh     13.26 kcal/mol

In case the symmetry of your molecule has not been determined correctly
or in case you have a reason to use a different symmetry number we print 
out the resulting rotational entropy values for sn=1,12:

 non-linear molecules -----------------------------------
|  sn= 1 | S(rot)=       0.00715440 Eh      4.49 kcal/mol|
|  sn= 2 | S(rot)=       0.00649994 Eh      4.08 kcal/mol|
|  sn= 3 | S(rot)=       0.00611711 Eh      3.84 kcal/mol|
|  sn= 4 | S(rot)=       0.00584549 Eh      3.67 kcal/mol|
|  sn= 5 | S(rot)=       0.00563480 Eh      3.54 kcal/mol|
|  sn= 6 | S(rot)=       0.00546265 Eh      3.43 kcal/mol|
|  sn= 7 | S(rot)=       0.00531711 Eh      3.34 kcal/mol|
|  sn= 8 | S(rot)=       0.00519103 Eh      3.26 kcal/mol|
|  sn= 9 | S(rot)=       0.00507982 Eh      3.19 kcal/mol|
|  sn=10 | S(rot)=       0.00498034 Eh      3.13 kcal/mol|
|  sn=11 | S(rot)=       0.00489035 Eh      3.07 kcal/mol|
|  sn=12 | S(rot)=       0.00480820 Eh      3.02 kcal/mol|
 linear molecules ---------------------------------------
|  Dinfh | S(rot)=       0.00375487 Eh      2.36 kcal/mol|
|  Cinfv | S(rot)=       0.00440933 Eh      2.77 kcal/mol|
 --------------------------------------------------------


-------------------
GIBBS FREE ENERGY
-------------------

The Gibbs free energy is G = H - T*S

Total enthalpy                    ...    -40.39232033 Eh 
Total entropy correction          ...     -0.02112754 Eh    -13.26 kcal/mol
-----------------------------------------------------------------------
Final Gibbs free energy         ...    -40.41344787 Eh

For completeness - the Gibbs free energy minus the electronic energy
G-E(el)                           ...      0.02748234 Eh     17.25 kcal/mol



--------------------------------
SUGGESTED CITATIONS FOR THIS RUN
--------------------------------

Below you find a list of papers that are relevant to this ORCA run
We neither can nor want to force you to cite these papers, but we appreciate if you do
You receive ORCA, which is the product of decades of hard work by many enthusiastic individuals, for free
The only thing we kindly ask in return is that you cite our papers,
We deeply appreciate it, if you show your appreciation for ORCA by not just citing the generic ORCA reference.

Please note that relegating all ORCA citations to the supporting information does *not* help us.
SI sections are not indexed - citations you put there will not count into any citation statistics
But we need these citations in order to attract the funding resources that allow us to do what we are doing

Therefore, if you are a happy ORCA user, please consider citing a few of the papers listed below in the main body of your paper

In addition to the list printed below, the program has created the file CH4_CCSD.bibtex that contains the list in bibtex format
You can import this file easily into all common literature databanks and citation aid programs

It goes without saying that in many instances, there are alternative algorithms to achieve similar
results as the ones you have gotten from ORCA. It is, of course, also the case that in some instances
ORCA just re-implements algorithms worked out by others. We are fully aware of that and we are also
fully appreciative of our colleagues work. Hence this citation list should not be read as indicating
that the listed papers, which are focused on our own work, are the only ones worth citing. It simply
meant to make it easier for users to cite ORCA specific papers. It is not a substitute for doing your
own literature research and citing the relevant literature in a scientifically appropriate manner.

List of essential papers. We consider these as the minimum necessary citations

  1. Neese, F.
     Software update: the ORCA program system, version 6.0
     WIRES Comput. Molec. Sci. 2025 15(1), e70019
     doi.org/10.1002/wcms.70019

List of papers to cite with high priority. The work reported in these papers was absolutely
necessary for this run to complete.
Our perspective: the developers of density functionals and basis sets usually get cited in chemistry papers
Good! But without the algorithms to do something with them, the functionals or basis sets would not do anything.
Hence, in our opinion, the algorithm design and method developments papers are equally worthy of getting cited

  1. Neese, F.
     The SHARK Integral Generation and Digestion System
     J. Comp. Chem. 2022 44(3), 381
     doi.org/10.1002/jcc.26942

List of suggested additional citations. These are papers that are important in the 'surrounding' of 
of this run, or papers that preceded the highly important papers. If you like your results we are grateful for a citation.

  1. Neese, F.
     The ORCA program system
     WIRES Comput. Molec. Sci. 2012 2(1), 73-78
     doi.org/10.1002/wcms.81
  2. Neese, F.
     Software update: the ORCA program system, version 4.0
     WIRES Comput. Molec. Sci. 2018 8(1), 1-6
     doi.org/10.1002/wcms.1327
  3. Neese, F.; Wennmohs, F.; Becker, U.; Riplinger, C.
     The ORCA quantum chemistry program package
     J. Chem. Phys. 2020 152(22), 224108
     doi.org/10.1063/5.0004608
  4. Neese, F.
     Software update: The ORCA program system—Version 5.0
     WIRES Comput. Molec. Sci. 2022 12(1), e1606
     doi.org/10.1002/wcms.1606

List of optional additional citations

  1. Neese, F.
     Approximate second-order SCF convergence for spin unrestricted wavefunctions
     Chem. Phys. Lett. 2000 325(1-3), 93-98
     doi.org/10.1016/s0009-2614(00)00662-x

Timings for individual modules:

Sum of individual times          ...    20060.751 sec (= 334.346 min)
Startup calculation              ...        9.417 sec (=   0.157 min)   0.0 %
SCF iterations                   ...       24.277 sec (=   0.405 min)   0.1 %
Property integrals               ...        5.619 sec (=   0.094 min)   0.0 %
Property calculations            ...        1.257 sec (=   0.021 min)   0.0 %
MDCI module                      ...      283.507 sec (=   4.725 min)   1.4 %
SCF Gradient evaluation          ...     2760.542 sec (=  46.009 min)  13.8 %
Geometry relaxation              ...        0.082 sec (=   0.001 min)   0.0 %
Numerical frequency calculation  ...    16976.050 sec (= 282.934 min)  84.6 %
                             ****ORCA TERMINATED NORMALLY****
TOTAL RUN TIME: 0 days 5 hours 22 minutes 4 seconds 24 msec
