 Entering Gaussian System, Link 0=g16
 Input=co2_ccsdt_opt.com
 Output=co2_ccsdt_opt.log
 Initial command:
 /uufs/chpc.utah.edu/sys/installdir/gaussian16/C01/AVX2/g16/l1.exe "/scratch/general/vast/u0253283/10389228/notchpeak.peaks/Gau-2275882.inp" -scrdir="/scratch/general/vast/u0253283/10389228/notchpeak.peaks/"
 Entering Link 1 = /uufs/chpc.utah.edu/sys/installdir/gaussian16/C01/AVX2/g16/l1.exe PID=   2275883.
  
 Copyright (c) 1988-2019, Gaussian, Inc.  All Rights Reserved.
  
 This is part of the Gaussian(R) 16 program.  It is based on
 the Gaussian(R) 09 system (copyright 2009, Gaussian, Inc.),
 the Gaussian(R) 03 system (copyright 2003, Gaussian, Inc.),
 the Gaussian(R) 98 system (copyright 1998, Gaussian, Inc.),
 the Gaussian(R) 94 system (copyright 1995, Gaussian, Inc.),
 the Gaussian 92(TM) system (copyright 1992, Gaussian, Inc.),
 the Gaussian 90(TM) system (copyright 1990, Gaussian, Inc.),
 the Gaussian 88(TM) system (copyright 1988, Gaussian, Inc.),
 the Gaussian 86(TM) system (copyright 1986, Carnegie Mellon
 University), and the Gaussian 82(TM) system (copyright 1983,
 Carnegie Mellon University). Gaussian is a federally registered
 trademark of Gaussian, Inc.
  
 This software contains proprietary and confidential information,
 including trade secrets, belonging to Gaussian, Inc.
  
 This software is provided under written license and may be
 used, copied, transmitted, or stored only in accord with that
 written license.
  
 The following legend is applicable only to US Government
 contracts under FAR:
  
                    RESTRICTED RIGHTS LEGEND
  
 Use, reproduction and disclosure by the US Government is
 subject to restrictions as set forth in subparagraphs (a)
 and (c) of the Commercial Computer Software - Restricted
 Rights clause in FAR 52.227-19.
  
 Gaussian, Inc.
 340 Quinnipiac St., Bldg. 40, Wallingford CT 06492
  
  
 ---------------------------------------------------------------
 Warning -- This program may not be used in any manner that
 competes with the business of Gaussian, Inc. or will provide
 assistance to any competitor of Gaussian, Inc.  The licensee
 of this program is prohibited from giving any competitor of
 Gaussian, Inc. access to this program.  By using this program,
 the user acknowledges that Gaussian, Inc. is engaged in the
 business of creating and licensing software in the field of
 computational chemistry and represents and warrants to the
 licensee that it is not a competitor of Gaussian, Inc. and that
 it will not use this program in any manner prohibited above.
 ---------------------------------------------------------------
  

 Cite this work as:
 Gaussian 16, Revision C.01,
 M. J. Frisch, G. W. Trucks, H. B. Schlegel, G. E. Scuseria, 
 M. A. Robb, J. R. Cheeseman, G. Scalmani, V. Barone, 
 G. A. Petersson, H. Nakatsuji, X. Li, M. Caricato, A. V. Marenich, 
 J. Bloino, B. G. Janesko, R. Gomperts, B. Mennucci, H. P. Hratchian, 
 J. V. Ortiz, A. F. Izmaylov, J. L. Sonnenberg, D. Williams-Young, 
 F. Ding, F. Lipparini, F. Egidi, J. Goings, B. Peng, A. Petrone, 
 T. Henderson, D. Ranasinghe, V. G. Zakrzewski, J. Gao, N. Rega, 
 G. Zheng, W. Liang, M. Hada, M. Ehara, K. Toyota, R. Fukuda, 
 J. Hasegawa, M. Ishida, T. Nakajima, Y. Honda, O. Kitao, H. Nakai, 
 T. Vreven, K. Throssell, J. A. Montgomery, Jr., J. E. Peralta, 
 F. Ogliaro, M. J. Bearpark, J. J. Heyd, E. N. Brothers, K. N. Kudin, 
 V. N. Staroverov, T. A. Keith, R. Kobayashi, J. Normand, 
 K. Raghavachari, A. P. Rendell, J. C. Burant, S. S. Iyengar, 
 J. Tomasi, M. Cossi, J. M. Millam, M. Klene, C. Adamo, R. Cammi, 
 J. W. Ochterski, R. L. Martin, K. Morokuma, O. Farkas, 
 J. B. Foresman, and D. J. Fox, Gaussian, Inc., Wallingford CT, 2019.
 
 ******************************************
 Gaussian 16:  ES64L-G16RevC.01  3-Jul-2019
                 5-Jan-2026 
 ******************************************
 %chk=co2_ccsdt_opt.chk
 %mem=92GB
 ----------------------------------------------------------------------
 #p CCSD(T,FC,T1Diag,Conver=10, MaxCyc=200)/aug-cc-pVTZ Opt=(Z-matrix,V
 eryTight) Symmetry=(Follow) SCF=(Conver=12,MaxCycle=200) Integral=(Acc
 2E=18,BasisTransform=18)
 ----------------------------------------------------------------------

 Warning:  this job cannot use analytic gradients
           and so will do many energy evaluations.

 1/7=1,18=40,29=20000,38=1,172=1/1,14;
 2/12=2,17=6,18=5,29=3,40=1/2;
 3/5=16,6=1,7=10,11=9,25=1,27=18,30=1,60=18/1,2,3;
 4//1;
 5/5=2,6=12,7=200,38=5,87=18/2;
 8/6=4,9=120000,10=1,87=18/1,4;
 9/5=7,6=200,9=10,14=2,36=1,87=18/13;
 6/7=2,8=2,9=2,10=2,87=18/1;
 1/7=1,18=40/14(2);
 2/15=5,29=3/2;
 99//99;
 2/15=5,29=3/2;
 3/5=16,6=1,7=10,11=9,25=1,27=18,30=1,60=18/1,2,3;
 4/5=5,16=3,69=1/1;
 5/5=2,6=12,7=200,38=5,87=18/2;
 8/6=4,9=120000,10=1,87=18/1,4;
 9/5=7,6=200,9=10,14=2,36=1,87=18/13;
 1/7=1,18=40/14(-6);
 2/15=5,29=3/2;
 6/7=2,8=2,9=2,10=2,87=18/1;
 99/9=10/99;
 Leave Link    1 at Mon Jan  5 18:06:36 2026, MaxMem= 12348030976 cpu:               0.1 elap:               0.1
 (Enter /uufs/chpc.utah.edu/sys/installdir/gaussian16/C01/AVX2/g16/l101.exe)
 ----------------------------------------------------------------
 CO2: CCSD(T)/aug-cc-pVTZ linear opt. & freq. calc. using CCSD(T)
 ----------------------------------------------------------------
 Symbolic Z-matrix:
 Charge =  0 Multiplicity = 1
 O
 C                    1    RCO
 X                    2     1.       1     90. 
 O                    2    RCO      3     90.      1     180.     0
       Variables:
  RCO                   1.16                     
 
 ITRead=  0  0  0
 MicOpt= -1 -1 -1
 NAtoms=      3 NQM=        3 NQMF=       0 NMMI=      0 NMMIF=      0
                NMic=       0 NMicF=      0.
                    Isotopes and Nuclear Properties:
 (Nuclear quadrupole moments (NQMom) in fm**2, nuclear magnetic moments (NMagM)
  in nuclear magnetons)

  Atom         1           2           3
 IAtWgt=          16          12          16
 AtmWgt=  15.9949146  12.0000000  15.9949146
 NucSpn=           0           0           0
 AtZEff=  -0.0000000  -0.0000000  -0.0000000
 NQMom=    0.0000000   0.0000000   0.0000000
 NMagM=    0.0000000   0.0000000   0.0000000
 AtZNuc=   8.0000000   6.0000000   8.0000000
 Leave Link  101 at Mon Jan  5 18:06:36 2026, MaxMem= 12348030976 cpu:               0.2 elap:               0.3
 (Enter /uufs/chpc.utah.edu/sys/installdir/gaussian16/C01/AVX2/g16/l114.exe)

 NEF-NEF-NEF-NEF-NEF-NEF-NEF-NEF-NEF-NEF-NEF-NEF-NEF-NEF-NEF-NEF-NEF-NEF-
 NUMERICAL EIGENVECTOR FOLLOWING MINIMUM SEARCH
 INITIALIZATION PASS
                       ----------------------------
                       !    Initial Parameters    !
                       ! (Angstroms and Degrees)  !
 ----------------------                            ----------------------
 !      Name          Value   Derivative information (Atomic Units)     !
 ------------------------------------------------------------------------
 !       RCO         1.16     estimate D2E/DX2                          !
 ------------------------------------------------------------------------


 ***************************************************
 ** O P T I M I Z A T I O N   P A R A M E T E R S **
 **  MAXIMUM NO. OF ITERATIONS      :          21 **
 **  MAXIMUM ALLOWED STEP LENGTH    :    0.300000 **
 ***************************************************



 NEF-NEF-NEF-NEF-NEF-NEF-NEF-NEF-NEF-NEF-NEF-NEF-NEF-NEF-NEF-NEF-NEF-NEF-
 Leave Link  114 at Mon Jan  5 18:06:36 2026, MaxMem= 12348030976 cpu:               0.0 elap:               0.0
 (Enter /uufs/chpc.utah.edu/sys/installdir/gaussian16/C01/AVX2/g16/l202.exe)
 ---------------------------------------------------------------------------------------------------
                            Z-MATRIX (ANGSTROMS AND DEGREES)
   CD    Cent   Atom    N1       Length/X        N2       Alpha/Y        N3        Beta/Z          J
 ---------------------------------------------------------------------------------------------------
      1      1  O 
      2      2  C        1   1.160000(     1)
      3         X        2   1.000000(     2)      1   90.000(     4)
      4      3  O        2   1.160000(     3)      3   90.000(     5)      1  180.000(     6)      0
 ---------------------------------------------------------------------------------------------------
                         Z-Matrix orientation:                         
 ---------------------------------------------------------------------
 Center     Atomic      Atomic             Coordinates (Angstroms)
 Number     Number       Type             X           Y           Z
 ---------------------------------------------------------------------
      1          8           0        0.000000    0.000000    0.000000
      2          6           0        0.000000    0.000000    1.160000
      3         -1           0        1.000000    0.000000    1.160000
      4          8           0        0.000000   -0.000000    2.320000
 ---------------------------------------------------------------------
                    Distance matrix (angstroms):
                    1          2          3          4
     1  O    0.000000
     2  C    1.160000   0.000000
     3  X    1.531535   1.000000   0.000000
     4  O    2.320000   1.160000   1.531535   0.000000
 Stoichiometry    CO2
 Framework group  D*H[O(C),C*(O.O)]
 Deg. of freedom     1
 Full point group                 D*H     NOp   8
 Largest Abelian subgroup         D2H     NOp   8
 Largest concise Abelian subgroup C2      NOp   2
                         Standard orientation:                         
 ---------------------------------------------------------------------
 Center     Atomic      Atomic             Coordinates (Angstroms)
 Number     Number       Type             X           Y           Z
 ---------------------------------------------------------------------
      1          8           0        0.000000    0.000000    1.160000
      2          6           0        0.000000    0.000000    0.000000
      3          8           0        0.000000    0.000000   -1.160000
 ---------------------------------------------------------------------
 Rotational constants (GHZ):           0.0000000          11.7405732          11.7405732
 Leave Link  202 at Mon Jan  5 18:06:36 2026, MaxMem= 12348030976 cpu:               0.0 elap:               0.0
 (Enter /uufs/chpc.utah.edu/sys/installdir/gaussian16/C01/AVX2/g16/l301.exe)
 Standard basis: Aug-CC-pVTZ (5D, 7F)
 Ernie: Thresh=  0.10000D-02 Tol=  0.10000D-17 Strict=F.
 Ernie:  6 primitive shells out of 90 were deleted.
 There are    38 symmetry adapted cartesian basis functions of AG  symmetry.
 There are     8 symmetry adapted cartesian basis functions of B1G symmetry.
 There are    16 symmetry adapted cartesian basis functions of B2G symmetry.
 There are    16 symmetry adapted cartesian basis functions of B3G symmetry.
 There are     7 symmetry adapted cartesian basis functions of AU  symmetry.
 There are    34 symmetry adapted cartesian basis functions of B1U symmetry.
 There are    23 symmetry adapted cartesian basis functions of B2U symmetry.
 There are    23 symmetry adapted cartesian basis functions of B3U symmetry.
 There are    30 symmetry adapted basis functions of AG  symmetry.
 There are     8 symmetry adapted basis functions of B1G symmetry.
 There are    14 symmetry adapted basis functions of B2G symmetry.
 There are    14 symmetry adapted basis functions of B3G symmetry.
 There are     7 symmetry adapted basis functions of AU  symmetry.
 There are    27 symmetry adapted basis functions of B1U symmetry.
 There are    19 symmetry adapted basis functions of B2U symmetry.
 There are    19 symmetry adapted basis functions of B3U symmetry.
   138 basis functions,   219 primitive gaussians,   165 cartesian basis functions
    11 alpha electrons       11 beta electrons
       nuclear repulsion energy        58.3919681015 Hartrees.
 IExCor=    0 DFT=F Ex=HF Corr=None ExCW=0 ScaHFX=  1.000000
 ScaDFX=  1.000000  1.000000  1.000000  1.000000 ScalE2=  1.000000  1.000000
 IRadAn=      5 IRanWt=     -1 IRanGd=            0 ICorTp=0 IEmpDi=  4
 NAtoms=    3 NActive=    3 NUniq=    2 SFac= 2.25D+00 NAtFMM=   60 NAOKFM=F Big=F
 Integral buffers will be    131072 words long.
 Raffenetti 1 integral format.
 Two-electron integral symmetry is turned on.
 Leave Link  301 at Mon Jan  5 18:06:36 2026, MaxMem= 12348030976 cpu:               0.1 elap:               0.1
 (Enter /uufs/chpc.utah.edu/sys/installdir/gaussian16/C01/AVX2/g16/l302.exe)
 NPDir=0 NMtPBC=     1 NCelOv=     1 NCel=       1 NClECP=     1 NCelD=      1
         NCelK=      1 NCelE2=     1 NClLst=     1 CellRange=     0.0.
 One-electron integrals computed using PRISM.
 One-electron integral symmetry used in STVInt
 NBasis=   138 RedAO= T EigKep=  3.51D-04  NBF=    30     8    14    14     7    27    19    19
 NBsUse=   138 1.00D-06 EigRej= -1.00D+00 NBFU=    30     8    14    14     7    27    19    19
 Leave Link  302 at Mon Jan  5 18:06:36 2026, MaxMem= 12348030976 cpu:               0.1 elap:               0.2
 (Enter /uufs/chpc.utah.edu/sys/installdir/gaussian16/C01/AVX2/g16/l303.exe)
 DipDrv:  MaxL=1.
 Leave Link  303 at Mon Jan  5 18:06:37 2026, MaxMem= 12348030976 cpu:               0.1 elap:               0.1
 (Enter /uufs/chpc.utah.edu/sys/installdir/gaussian16/C01/AVX2/g16/l401.exe)
 ExpMin= 3.57D-02 ExpMax= 1.53D+04 ExpMxC= 5.22D+02 IAcc=3 IRadAn=         5 AccDes= 0.00D+00
 Harris functional with IExCor=  205 and IRadAn=       5 diagonalized for initial guess.
 HarFok:  IExCor=  205 AccDes= 0.00D+00 IRadAn=         5 IDoV= 1 UseB2=F ITyADJ=14
 ICtDFT=  3500011 ScaDFX=  1.000000  1.000000  1.000000  1.000000
 FoFCou: FMM=F IPFlag=           0 FMFlag=      100000 FMFlg1=           0
         NFxFlg=           0 DoJE=T BraDBF=F KetDBF=T FulRan=T
         wScrn=  0.000000 ICntrl=       500 IOpCl=  0 I1Cent=   200000004 NGrid=           0
         NMat0=    1 NMatS0=      1 NMatT0=    0 NMatD0=    1 NMtDS0=    0 NMtDT0=    0
 Petite list used in FoFCou.
 Harris En= -187.739495867897    
 JPrj=0 DoOrth=F DoCkMO=F.
 Initial guess orbital symmetries:
       Occupied  (SGU) (SGG) (SGG) (SGG) (SGU) (SGG) (SGU) (PIU)
                 (PIU) (PIG) (PIG)
       Virtual   (PIU) (PIU) (SGG) (SGU) (PIU) (PIU) (SGG) (PIG)
                 (PIG) (SGG) (SGU) (PIU) (PIU) (DLTG) (DLTG) (SGU)
                 (SGG) (PIU) (PIU) (PIG) (PIG) (SGG) (SGU) (DLTU)
                 (DLTU) (SGG) (PIG) (PIG) (DLTG) (DLTG) (SGU) (PIU)
                 (PIU) (SGG) (SGU) (PHIU) (PHIU) (DLTG) (DLTG)
                 (PIU) (PIU) (SGU) (PIG) (PIG) (DLTU) (DLTU) (SGU)
                 (PIG) (PIG) (SGG) (PIU) (PIU) (SGG) (PHIG) (PHIG)
                 (DLTU) (DLTU) (DLTG) (DLTG) (PIU) (PIU) (PHIU)
                 (PHIU) (SGG) (SGU) (SGG) (PIG) (PIG) (SGU) (DLTG)
                 (DLTG) (DLTU) (DLTU) (PIG) (PIG) (PIU) (PIU) (SGU)
                 (PIU) (PIU) (DLTG) (DLTG) (PHIU) (PHIU) (SGG)
                 (PIG) (PIG) (SGU) (PIU) (PIU) (DLTU) (DLTU) (SGG)
                 (PIG) (PIG) (SGG) (SGU) (SGU) (PIU) (PIU) (PHIG)
                 (PHIG) (PHIU) (PHIU) (DLTG) (DLTG) (DLTU) (DLTU)
                 (DLTG) (DLTG) (PIG) (PIG) (SGU) (DLTU) (DLTU)
                 (PIU) (PIU) (SGG) (SGG) (PIG) (PIG) (SGU) (PIU)
                 (PIU) (SGG) (SGG) (SGU)
 The electronic state of the initial guess is 1-SGG.
 Leave Link  401 at Mon Jan  5 18:06:37 2026, MaxMem= 12348030976 cpu:               0.2 elap:               0.2
 (Enter /uufs/chpc.utah.edu/sys/installdir/gaussian16/C01/AVX2/g16/l502.exe)
 Keep R1 ints in memory in symmetry-blocked form, NReq=51901092.
 FoFCou: FMM=F IPFlag=           0 FMFlag=           0 FMFlg1=           0
         NFxFlg=           0 DoJE=F BraDBF=F KetDBF=F FulRan=T
         wScrn=  0.000000 ICntrl=       600 IOpCl=  0 I1Cent=           0 NGrid=           0
         NMat0=    1 NMatS0=   9591 NMatT0=    0 NMatD0=    1 NMtDS0=    0 NMtDT0=    0
 Petite list used in FoFCou.
 Closed shell SCF:
 Using DIIS extrapolation, IDIIS=  1040.
 NGot= 12348030976 LenX= 12342072257 LenY= 12342044591
 Requested convergence on RMS density matrix=1.00D-12 within 200 cycles.
 Requested convergence on MAX density matrix=1.00D-10.
 Requested convergence on             energy=1.00D-10.
 No special actions if energy rises.

 Cycle   1  Pass 1  IDiag  1:
 E= -187.615615853132    
 DIIS: error= 5.85D-02 at cycle   1 NSaved=   1.
 NSaved= 1 IEnMin= 1 EnMin= -187.615615853132     IErMin= 1 ErrMin= 5.85D-02
 ErrMax= 5.85D-02  0.00D+00 EMaxC= 1.00D-01 BMatC= 3.21D-01 BMatP= 3.21D-01
 IDIUse=3 WtCom= 4.15D-01 WtEn= 5.85D-01
 Coeff-Com:  0.100D+01
 Coeff-En:   0.100D+01
 Coeff:      0.100D+01
 Gap=     0.564 Goal=   None    Shift=    0.000
 GapD=    0.564 DampG=2.000 DampE=0.500 DampFc=1.0000 IDamp=-1.
 RMSDP=1.52D-03 MaxDP=3.80D-02              OVMax= 7.79D-02

 Cycle   2  Pass 1  IDiag  1:
 E= -187.684303018824     Delta-E=       -0.068687165692 Rises=F Damp=F
 DIIS: error= 2.46D-02 at cycle   2 NSaved=   2.
 NSaved= 2 IEnMin= 2 EnMin= -187.684303018824     IErMin= 2 ErrMin= 2.46D-02
 ErrMax= 2.46D-02  0.00D+00 EMaxC= 1.00D-01 BMatC= 4.09D-02 BMatP= 3.21D-01
 IDIUse=3 WtCom= 7.54D-01 WtEn= 2.46D-01
 Coeff-Com:  0.183D+00 0.817D+00
 Coeff-En:   0.000D+00 0.100D+01
 Coeff:      0.138D+00 0.862D+00
 Gap=     0.617 Goal=   None    Shift=    0.000
 RMSDP=7.78D-04 MaxDP=2.35D-02 DE=-6.87D-02 OVMax= 5.94D-02

 Cycle   3  Pass 1  IDiag  1:
 E= -187.703465412662     Delta-E=       -0.019162393838 Rises=F Damp=F
 DIIS: error= 1.44D-02 at cycle   3 NSaved=   3.
 NSaved= 3 IEnMin= 3 EnMin= -187.703465412662     IErMin= 3 ErrMin= 1.44D-02
 ErrMax= 1.44D-02  0.00D+00 EMaxC= 1.00D-01 BMatC= 1.04D-02 BMatP= 4.09D-02
 IDIUse=3 WtCom= 8.56D-01 WtEn= 1.44D-01
 Coeff-Com: -0.305D-01 0.316D+00 0.715D+00
 Coeff-En:   0.000D+00 0.692D-01 0.931D+00
 Coeff:     -0.261D-01 0.280D+00 0.746D+00
 Gap=     0.593 Goal=   None    Shift=    0.000
 RMSDP=2.75D-04 MaxDP=1.09D-02 DE=-1.92D-02 OVMax= 1.76D-02

 Cycle   4  Pass 1  IDiag  1:
 E= -187.709418001125     Delta-E=       -0.005952588464 Rises=F Damp=F
 DIIS: error= 1.57D-03 at cycle   4 NSaved=   4.
 NSaved= 4 IEnMin= 4 EnMin= -187.709418001125     IErMin= 4 ErrMin= 1.57D-03
 ErrMax= 1.57D-03  0.00D+00 EMaxC= 1.00D-01 BMatC= 7.78D-05 BMatP= 1.04D-02
 IDIUse=3 WtCom= 9.84D-01 WtEn= 1.57D-02
 Coeff-Com: -0.314D-02-0.940D-03 0.712D-01 0.933D+00
 Coeff-En:   0.000D+00 0.000D+00 0.000D+00 0.100D+01
 Coeff:     -0.309D-02-0.926D-03 0.701D-01 0.934D+00
 Gap=     0.592 Goal=   None    Shift=    0.000
 RMSDP=3.38D-05 MaxDP=9.99D-04 DE=-5.95D-03 OVMax= 3.60D-03

 Cycle   5  Pass 1  IDiag  1:
 E= -187.709499414954     Delta-E=       -0.000081413829 Rises=F Damp=F
 DIIS: error= 4.79D-04 at cycle   5 NSaved=   5.
 NSaved= 5 IEnMin= 5 EnMin= -187.709499414954     IErMin= 5 ErrMin= 4.79D-04
 ErrMax= 4.79D-04  0.00D+00 EMaxC= 1.00D-01 BMatC= 6.79D-06 BMatP= 7.78D-05
 IDIUse=3 WtCom= 9.95D-01 WtEn= 4.79D-03
 Coeff-Com:  0.286D-02-0.280D-01-0.815D-01-0.217D-01 0.113D+01
 Coeff-En:   0.000D+00 0.000D+00 0.000D+00 0.000D+00 0.100D+01
 Coeff:      0.284D-02-0.279D-01-0.811D-01-0.215D-01 0.113D+01
 Gap=     0.592 Goal=   None    Shift=    0.000
 RMSDP=1.53D-05 MaxDP=7.30D-04 DE=-8.14D-05 OVMax= 9.78D-04

 Cycle   6  Pass 1  IDiag  1:
 E= -187.709506758248     Delta-E=       -0.000007343294 Rises=F Damp=F
 DIIS: error= 6.94D-05 at cycle   6 NSaved=   6.
 NSaved= 6 IEnMin= 6 EnMin= -187.709506758248     IErMin= 6 ErrMin= 6.94D-05
 ErrMax= 6.94D-05  0.00D+00 EMaxC= 1.00D-01 BMatC= 1.27D-07 BMatP= 6.79D-06
 IDIUse=1 WtCom= 1.00D+00 WtEn= 0.00D+00
 Coeff-Com: -0.535D-03 0.653D-02 0.177D-01-0.126D-01-0.327D+00 0.132D+01
 Coeff:     -0.535D-03 0.653D-02 0.177D-01-0.126D-01-0.327D+00 0.132D+01
 Gap=     0.592 Goal=   None    Shift=    0.000
 RMSDP=2.88D-06 MaxDP=1.14D-04 DE=-7.34D-06 OVMax= 2.34D-04

 Cycle   7  Pass 1  IDiag  1:
 E= -187.709507025397     Delta-E=       -0.000000267149 Rises=F Damp=F
 DIIS: error= 1.15D-05 at cycle   7 NSaved=   7.
 NSaved= 7 IEnMin= 7 EnMin= -187.709507025397     IErMin= 7 ErrMin= 1.15D-05
 ErrMax= 1.15D-05  0.00D+00 EMaxC= 1.00D-01 BMatC= 4.33D-09 BMatP= 1.27D-07
 IDIUse=1 WtCom= 1.00D+00 WtEn= 0.00D+00
 Coeff-Com:  0.676D-04-0.967D-03-0.298D-02 0.205D-02 0.702D-01-0.414D+00
 Coeff-Com:  0.135D+01
 Coeff:      0.676D-04-0.967D-03-0.298D-02 0.205D-02 0.702D-01-0.414D+00
 Coeff:      0.135D+01
 Gap=     0.592 Goal=   None    Shift=    0.000
 RMSDP=5.74D-07 MaxDP=1.69D-05 DE=-2.67D-07 OVMax= 4.70D-05

 Cycle   8  Pass 1  IDiag  1:
 E= -187.709507033521     Delta-E=       -0.000000008124 Rises=F Damp=F
 DIIS: error= 7.87D-07 at cycle   8 NSaved=   8.
 NSaved= 8 IEnMin= 8 EnMin= -187.709507033521     IErMin= 8 ErrMin= 7.87D-07
 ErrMax= 7.87D-07  0.00D+00 EMaxC= 1.00D-01 BMatC= 4.21D-11 BMatP= 4.33D-09
 IDIUse=1 WtCom= 1.00D+00 WtEn= 0.00D+00
 Coeff-Com: -0.790D-05 0.124D-03 0.424D-03-0.480D-03-0.109D-01 0.774D-01
 Coeff-Com: -0.324D+00 0.126D+01
 Coeff:     -0.790D-05 0.124D-03 0.424D-03-0.480D-03-0.109D-01 0.774D-01
 Coeff:     -0.324D+00 0.126D+01
 Gap=     0.592 Goal=   None    Shift=    0.000
 RMSDP=6.69D-08 MaxDP=1.26D-06 DE=-8.12D-09 OVMax= 3.49D-06

 Cycle   9  Pass 1  IDiag  1:
 E= -187.709507033597     Delta-E=       -0.000000000076 Rises=F Damp=F
 DIIS: error= 1.31D-07 at cycle   9 NSaved=   9.
 NSaved= 9 IEnMin= 9 EnMin= -187.709507033597     IErMin= 9 ErrMin= 1.31D-07
 ErrMax= 1.31D-07  0.00D+00 EMaxC= 1.00D-01 BMatC= 5.26D-13 BMatP= 4.21D-11
 IDIUse=1 WtCom= 1.00D+00 WtEn= 0.00D+00
 Coeff-Com:  0.745D-06-0.113D-04-0.466D-04 0.690D-04 0.118D-02-0.896D-02
 Coeff-Com:  0.408D-01-0.227D+00 0.119D+01
 Coeff:      0.745D-06-0.113D-04-0.466D-04 0.690D-04 0.118D-02-0.896D-02
 Coeff:      0.408D-01-0.227D+00 0.119D+01
 Gap=     0.592 Goal=   None    Shift=    0.000
 RMSDP=6.04D-09 MaxDP=8.95D-08 DE=-7.63D-11 OVMax= 3.51D-07

 Cycle  10  Pass 1  IDiag  1:
 E= -187.709507033599     Delta-E=       -0.000000000001 Rises=F Damp=F
 DIIS: error= 8.96D-09 at cycle  10 NSaved=  10.
 NSaved=10 IEnMin=10 EnMin= -187.709507033599     IErMin=10 ErrMin= 8.96D-09
 ErrMax= 8.96D-09  0.00D+00 EMaxC= 1.00D-01 BMatC= 6.10D-15 BMatP= 5.26D-13
 IDIUse=1 WtCom= 1.00D+00 WtEn= 0.00D+00
 Coeff-Com: -0.264D-07 0.339D-06 0.148D-05-0.420D-05-0.163D-04 0.712D-04
 Coeff-Com: -0.427D-03 0.132D-01-0.175D+00 0.116D+01
 Coeff:     -0.264D-07 0.339D-06 0.148D-05-0.420D-05-0.163D-04 0.712D-04
 Coeff:     -0.427D-03 0.132D-01-0.175D+00 0.116D+01
 Gap=     0.592 Goal=   None    Shift=    0.000
 RMSDP=7.37D-10 MaxDP=1.50D-08 DE=-1.25D-12 OVMax= 2.72D-08

 Cycle  11  Pass 1  IDiag  1:
 E= -187.709507033598     Delta-E=        0.000000000000 Rises=F Damp=F
 DIIS: error= 1.48D-09 at cycle  11 NSaved=  11.
 NSaved=11 IEnMin=10 EnMin= -187.709507033599     IErMin=11 ErrMin= 1.48D-09
 ErrMax= 1.48D-09  0.00D+00 EMaxC= 1.00D-01 BMatC= 1.32D-16 BMatP= 6.10D-15
 IDIUse=1 WtCom= 1.00D+00 WtEn= 0.00D+00
 Coeff-Com: -0.470D-08 0.675D-07 0.208D-06-0.153D-06-0.830D-05 0.797D-04
 Coeff-Com: -0.388D-03 0.102D-02 0.403D-02-0.147D+00 0.114D+01
 Coeff:     -0.470D-08 0.675D-07 0.208D-06-0.153D-06-0.830D-05 0.797D-04
 Coeff:     -0.388D-03 0.102D-02 0.403D-02-0.147D+00 0.114D+01
 Gap=     0.592 Goal=   None    Shift=    0.000
 RMSDP=8.14D-11 MaxDP=2.49D-09 DE= 2.27D-13 OVMax= 4.06D-09

 Cycle  12  Pass 1  IDiag  1:
 E= -187.709507033598     Delta-E=        0.000000000000 Rises=F Damp=F
 DIIS: error= 1.58D-10 at cycle  12 NSaved=  12.
 NSaved=12 IEnMin=10 EnMin= -187.709507033599     IErMin=12 ErrMin= 1.58D-10
 ErrMax= 1.58D-10  0.00D+00 EMaxC= 1.00D-01 BMatC= 7.91D-19 BMatP= 1.32D-16
 IDIUse=1 WtCom= 1.00D+00 WtEn= 0.00D+00
 Coeff-Com:  0.353D-09-0.350D-08-0.224D-07 0.505D-07 0.930D-06-0.101D-04
 Coeff-Com:  0.557D-04-0.268D-03 0.152D-02 0.660D-02-0.158D+00 0.115D+01
 Coeff:      0.353D-09-0.350D-08-0.224D-07 0.505D-07 0.930D-06-0.101D-04
 Coeff:      0.557D-04-0.268D-03 0.152D-02 0.660D-02-0.158D+00 0.115D+01
 Gap=     0.592 Goal=   None    Shift=    0.000
 RMSDP=9.39D-12 MaxDP=3.28D-10 DE= 2.27D-13 OVMax= 4.77D-10

 Cycle  13  Pass 1  IDiag  1:
 E= -187.709507033598     Delta-E=       -0.000000000000 Rises=F Damp=F
 DIIS: error= 8.29D-12 at cycle  13 NSaved=  13.
 NSaved=13 IEnMin=10 EnMin= -187.709507033599     IErMin=13 ErrMin= 8.29D-12
 ErrMax= 8.29D-12  0.00D+00 EMaxC= 1.00D-01 BMatC= 4.12D-21 BMatP= 7.91D-19
 IDIUse=1 WtCom= 1.00D+00 WtEn= 0.00D+00
 Coeff-Com:  0.715D-11-0.344D-09 0.480D-09-0.425D-08-0.493D-07 0.771D-06
 Coeff-Com: -0.492D-05 0.288D-04-0.233D-03-0.126D-03 0.168D-01-0.177D+00
 Coeff-Com:  0.116D+01
 Coeff:      0.715D-11-0.344D-09 0.480D-09-0.425D-08-0.493D-07 0.771D-06
 Coeff:     -0.492D-05 0.288D-04-0.233D-03-0.126D-03 0.168D-01-0.177D+00
 Coeff:      0.116D+01
 Gap=     0.592 Goal=   None    Shift=    0.000
 RMSDP=1.24D-12 MaxDP=2.35D-11 DE=-5.68D-14 OVMax= 2.98D-11

 Cycle  14  Pass 1  IDiag  1:
 E= -187.709507033598     Delta-E=        0.000000000000 Rises=F Damp=F
 DIIS: error= 9.33D-13 at cycle  14 NSaved=  14.
 NSaved=14 IEnMin=10 EnMin= -187.709507033599     IErMin=14 ErrMin= 9.33D-13
 ErrMax= 9.33D-13  0.00D+00 EMaxC= 1.00D-01 BMatC= 3.54D-23 BMatP= 4.12D-21
 IDIUse=1 WtCom= 1.00D+00 WtEn= 0.00D+00
 Coeff-Com:  0.000D+00 0.000D+00 0.000D+00 0.000D+00 0.000D+00 0.000D+00
 Coeff-Com:  0.000D+00 0.000D+00 0.000D+00 0.000D+00 0.000D+00 0.000D+00
 Coeff-Com:  0.000D+00 0.100D+01
 Coeff:      0.000D+00 0.000D+00 0.000D+00 0.000D+00 0.000D+00 0.000D+00
 Coeff:      0.000D+00 0.000D+00 0.000D+00 0.000D+00 0.000D+00 0.000D+00
 Coeff:      0.000D+00 0.100D+01
 Gap=     0.592 Goal=   None    Shift=    0.000
 RMSDP=7.99D-14 MaxDP=1.61D-12 DE= 2.84D-13 OVMax= 2.86D-12

 SCF Done:  E(RHF) =  -187.709507034     A.U. after   14 cycles
            NFock= 14  Conv=0.80D-13     -V/T= 2.0019
 KE= 1.873579378762D+02 PE=-5.598694259049D+02 EE= 1.264100128937D+02
 Leave Link  502 at Mon Jan  5 18:06:45 2026, MaxMem= 12348030976 cpu:               7.8 elap:               7.9
 (Enter /uufs/chpc.utah.edu/sys/installdir/gaussian16/C01/AVX2/g16/l801.exe)
 Windowed orbitals will be sorted by symmetry type.
 ExpMin= 3.57D-02 ExpMax= 1.53D+04 ExpMxC= 5.22D+02 IAcc=3 IRadAn=         5 AccDes= 0.00D+00
 HarFok:  IExCor=  205 AccDes= 0.00D+00 IRadAn=         5 IDoV=-2 UseB2=F ITyADJ=14
 ICtDFT= 12500011 ScaDFX=  1.000000  1.000000  1.000000  1.000000
 Largest valence mixing into a core orbital is  1.96D-04
 Largest core mixing into a valence orbital is  2.78D-05
 Range of M.O.s used for correlation:     4   138
 NBasis=   138 NAE=    11 NBE=    11 NFC=     3 NFV=     0
 NROrb=    135 NOA=     8 NOB=     8 NVA=   127 NVB=   127

 **** Warning!!: The largest alpha MO coefficient is  0.19956840D+02

 Leave Link  801 at Mon Jan  5 18:06:45 2026, MaxMem= 12348030976 cpu:               0.2 elap:               0.3
 (Enter /uufs/chpc.utah.edu/sys/installdir/gaussian16/C01/AVX2/g16/l804.exe)
 Closed-shell transformation, MDV= 12348030976 ITran=4 ISComp=2.
 Unit  1 TFree=        632977 TCopy=        486806.
 Semi-Direct transformation.
 ModeAB=           4 MOrb=             8 LenV=   12330918307
 LASXX=      1201694 LTotXX=     1201694 LenRXX=     2435562
 LTotAB=     1233868 MaxLAS=     8731800 LenRXY=           0
 NonZer=     3637256 LenScr=     5898240 LnRSAI=     8731800
 LnScr1=    13369344 LExtra=           0 Total=     30434946
 MaxDsk=          -1 SrtSym=           T ITran=            4
 DoSDTr:  NPSUse=  1
 JobTyp=0 Pass  1:  I=   1 to   8.
 (rs|ai) integrals will be sorted in core.
 Complete sort for first half transformation.
 First half transformation complete.
 Complete sort for second half transformation.
 Second half transformation complete.
 Spin components of T(2) and E(2):
     alpha-alpha T2 =       0.2279996309D-01 E2=     -0.8161615248D-01
     alpha-beta  T2 =       0.1158981699D+00 E2=     -0.4484946206D+00
     beta-beta   T2 =       0.2279996309D-01 E2=     -0.8161615248D-01
 ANorm=    0.1077728211D+01
 E2 =    -0.6117269255D+00 EUMP2 =    -0.18832123395914D+03
 Leave Link  804 at Mon Jan  5 18:06:51 2026, MaxMem= 12348030976 cpu:               5.6 elap:               5.7
 (Enter /uufs/chpc.utah.edu/sys/installdir/gaussian16/C01/AVX2/g16/l913.exe)
 CIDS:  MDV= 12348030976.
 Frozen-core window:  NFC=   3 NFV=   0.
 IFCWin=0 IBDFC=1 NFBD=     0     0 NFCmp=     0     0 NFFFC=     0     0
 Using DD3R+UMP44R for 1st iteration.
 Using DD4RQ for 2nd and later iterations.
 Keep R2 and R3 ints in memory in symmetry-blocked form, NReq=51906066.
 FoFCou: FMM=F IPFlag=           0 FMFlag=           0 FMFlg1=           0
         NFxFlg=           0 DoJE=F BraDBF=F KetDBF=F FulRan=T
         wScrn=  0.000000 ICntrl=       600 IOpCl=  0 I1Cent=           0 NGrid=           0
         NMat0=    1 NMatS0=   9591 NMatT0=    0 NMatD0=    1 NMtDS0=    0 NMtDT0=    0
 Petite list used in FoFCou.
 CIDS: In Core Option IDoMem=           1.
 CCSD(T)
 =======
 Iterations= 200 Convergence= 0.100D-09
 Produce multiple copies of IABC intergrals
 Iteration Nr.   1
 **********************
 DD1Dir will call FoFMem   1 times, MxPair=        72
 NAB=    36 NAA=     0 NBB=     0.
 MP4(R+Q)=  0.14141378D-01
 Maximum subspace dimension=  5
 A-vector RMS=  4.2730493D-03 Max=  3.6203173D-02 conv= 1.00D-08.
 RLE energy=       -0.5806128395
 E3=        0.17883759D-01        EUMP3=      -0.18830335020D+03
 E4(DQ)=   -0.44841125D-03        UMP4(DQ)=   -0.18830379861D+03
 E4(SDQ)=  -0.11337581D-01        UMP4(SDQ)=  -0.18831468778D+03
 VARIATIONAL ENERGIES WITH THE FIRST-ORDER WAVEFUNCTION:
 DE(Corr)= -0.57894637     E(Corr)=     -188.28845341    
 NORM(A)=   0.10702679D+01
 Iteration Nr.   2
 **********************
 DD1Dir will call FoFMem   1 times, MxPair=        72
 NAB=    36 NAA=     0 NBB=     0.
 A-vector RMS=  6.1552681D-04 Max=  7.8135925D-03 conv= 1.00D-08.
 RLE energy=       -0.6000175020
 DE(Corr)= -0.60188249     E(CORR)=     -188.31138953     Delta=-2.29D-02
 NORM(A)=   0.10767182D+01
 Iteration Nr.   3
 **********************
 DD1Dir will call FoFMem   1 times, MxPair=        72
 NAB=    36 NAA=     0 NBB=     0.
 A-vector RMS=  6.9230948D-04 Max=  6.4460977D-03 conv= 1.00D-08.
 RLE energy=       -0.6010761296
 DE(Corr)= -0.59918078     E(CORR)=     -188.30868781     Delta= 2.70D-03
 NORM(A)=   0.10786664D+01
 Iteration Nr.   4
 **********************
 DD1Dir will call FoFMem   1 times, MxPair=        72
 NAB=    36 NAA=     0 NBB=     0.
 A-vector RMS=  8.0282954D-05 Max=  6.8936165D-04 conv= 1.00D-08.
 RLE energy=       -0.6011385265
 DE(Corr)= -0.60101870     E(CORR)=     -188.31052574     Delta=-1.84D-03
 NORM(A)=   0.10792589D+01
 Iteration Nr.   5
 **********************
 DD1Dir will call FoFMem   1 times, MxPair=        72
 NAB=    36 NAA=     0 NBB=     0.
 A-vector RMS=  3.1671862D-05 Max=  2.5087603D-04 conv= 1.00D-08.
 RLE energy=       -0.6012053371
 DE(Corr)= -0.60118668     E(CORR)=     -188.31069371     Delta=-1.68D-04
 NORM(A)=   0.10793831D+01
 Iteration Nr.   6
 **********************
 DD1Dir will call FoFMem   1 times, MxPair=        72
 NAB=    36 NAA=     0 NBB=     0.
 A-vector RMS=  7.2445645D-06 Max=  5.5084946D-05 conv= 1.00D-08.
 RLE energy=       -0.6011882912
 DE(Corr)= -0.60119108     E(CORR)=     -188.31069812     Delta=-4.41D-06
 NORM(A)=   0.10793866D+01
 Iteration Nr.   7
 **********************
 DD1Dir will call FoFMem   1 times, MxPair=        72
 NAB=    36 NAA=     0 NBB=     0.
 A-vector RMS=  2.3684031D-06 Max=  1.6006158D-05 conv= 1.00D-08.
 RLE energy=       -0.6011897546
 DE(Corr)= -0.60119242     E(CORR)=     -188.31069946     Delta=-1.34D-06
 NORM(A)=   0.10793875D+01
 Iteration Nr.   8
 **********************
 DD1Dir will call FoFMem   1 times, MxPair=        72
 NAB=    36 NAA=     0 NBB=     0.
 A-vector RMS=  9.6545793D-07 Max=  6.0801293D-06 conv= 1.00D-08.
 RLE energy=       -0.6011910510
 DE(Corr)= -0.60119120     E(CORR)=     -188.31069823     Delta= 1.23D-06
 NORM(A)=   0.10793883D+01
 Iteration Nr.   9
 **********************
 DD1Dir will call FoFMem   1 times, MxPair=        72
 NAB=    36 NAA=     0 NBB=     0.
 A-vector RMS=  2.1997859D-07 Max=  1.3190368D-06 conv= 1.00D-08.
 RLE energy=       -0.6011916045
 DE(Corr)= -0.60119165     E(CORR)=     -188.31069869     Delta=-4.56D-07
 NORM(A)=   0.10793885D+01
 Iteration Nr.  10
 **********************
 DD1Dir will call FoFMem   1 times, MxPair=        72
 NAB=    36 NAA=     0 NBB=     0.
 A-vector RMS=  1.0256129D-07 Max=  8.2140284D-07 conv= 1.00D-08.
 RLE energy=       -0.6011915293
 DE(Corr)= -0.60119151     E(CORR)=     -188.31069854     Delta= 1.43D-07
 NORM(A)=   0.10793886D+01
 Iteration Nr.  11
 **********************
 DD1Dir will call FoFMem   1 times, MxPair=        72
 NAB=    36 NAA=     0 NBB=     0.
 A-vector RMS=  3.1216261D-08 Max=  2.7027279D-07 conv= 1.00D-08.
 RLE energy=       -0.6011917293
 DE(Corr)= -0.60119172     E(CORR)=     -188.31069875     Delta=-2.11D-07
 NORM(A)=   0.10793887D+01
 Iteration Nr.  12
 **********************
 DD1Dir will call FoFMem   1 times, MxPair=        72
 NAB=    36 NAA=     0 NBB=     0.
 A-vector RMS=  1.3763071D-08 Max=  1.0544194D-07 conv= 1.00D-08.
 RLE energy=       -0.6011917039
 DE(Corr)= -0.60119169     E(CORR)=     -188.31069872     Delta= 3.17D-08
 NORM(A)=   0.10793887D+01
 Iteration Nr.  13
 **********************
 DD1Dir will call FoFMem   1 times, MxPair=        72
 NAB=    36 NAA=     0 NBB=     0.
 A-vector RMS=  4.6499404D-09 Max=  2.9702010D-08 conv= 1.00D-08.
 RLE energy=       -0.6011917235
 DE(Corr)= -0.60119172     E(CORR)=     -188.31069875     Delta=-3.18D-08
 NORM(A)=   0.10793887D+01
 Iteration Nr.  14
 **********************
 DD1Dir will call FoFMem   1 times, MxPair=        72
 NAB=    36 NAA=     0 NBB=     0.
 A-vector RMS=  1.8024617D-09 Max=  1.0061497D-08 conv= 1.00D-08.
 RLE energy=       -0.6011917214
 DE(Corr)= -0.60119172     E(CORR)=     -188.31069875     Delta= 1.36D-09
 NORM(A)=   0.10793887D+01
 Iteration Nr.  15
 **********************
 DD1Dir will call FoFMem   1 times, MxPair=        72
 NAB=    36 NAA=     0 NBB=     0.
 A-vector RMS=  7.7311764D-10 Max=  5.5079310D-09 conv= 1.00D-08.
 RLE energy=       -0.6011917205
 DE(Corr)= -0.60119172     E(CORR)=     -188.31069875     Delta=-1.23D-09
 NORM(A)=   0.10793887D+01
 Iteration Nr.  16
 **********************
 DD1Dir will call FoFMem   1 times, MxPair=        72
 NAB=    36 NAA=     0 NBB=     0.
 A-vector RMS=  2.2714468D-10 Max=  2.1029348D-09 conv= 1.00D-08.
 RLE energy=       -0.6011917213
 DE(Corr)= -0.60119172     E(CORR)=     -188.31069876     Delta=-5.03D-10
 NORM(A)=   0.10793887D+01
 Iteration Nr.  17
 **********************
 DD1Dir will call FoFMem   1 times, MxPair=        72
 NAB=    36 NAA=     0 NBB=     0.
 A-vector RMS=  1.0715670D-10 Max=  6.3553865D-10 conv= 1.00D-08.
 RLE energy=       -0.6011917212
 DE(Corr)= -0.60119172     E(CORR)=     -188.31069875     Delta= 2.96D-10
 NORM(A)=   0.10793887D+01
 Iteration Nr.  18
 **********************
 DD1Dir will call FoFMem   1 times, MxPair=        72
 NAB=    36 NAA=     0 NBB=     0.
 A-vector RMS=  9.0347069D-11 Max=  4.8736538D-10 conv= 1.00D-08.
 RLE energy=       -0.6011917211
 DE(Corr)= -0.60119172     E(CORR)=     -188.31069875     Delta= 6.90D-11
 NORM(A)=   0.10793887D+01
 CI/CC converged in   18 iterations to DelEn= 6.90D-11 Conv= 1.00D-10 ErrA1= 9.03D-11 Conv= 1.00D-08
 Wavefunction amplitudes converged. E(Corr)=     -188.31069875    
 T1 Diagnostic =     0.01781273
 Largest amplitude= 4.51D-02
 IPart=  1 IA=    8   10.76% done.
 IPart=  1 IA=   15   20.91% done.
 IPart=  1 IA=   22   30.45% done.
 IPart=  1 IA=   30   40.59% done.
 IPart=  1 IA=   39   51.06% done.
 IPart=  1 IA=   48   60.50% done.
 IPart=  1 IA=   59   70.68% done.
 IPart=  1 IA=   71   80.05% done.
 IPart=  1 IA=   88   90.25% done.
 Time for triples=       32.41 seconds.
 T4(CCSD)= -0.31944909D-01
 T5(CCSD)=  0.22397531D-02
 CCSD(T)= -0.18834040391D+03
 Discarding MO integrals.
 Leave Link  913 at Mon Jan  5 18:08:31 2026, MaxMem= 12348030976 cpu:              99.3 elap:             100.0
 (Enter /uufs/chpc.utah.edu/sys/installdir/gaussian16/C01/AVX2/g16/l601.exe)
 Copying SCF densities to generalized density rwf, IOpCl= 0 IROHF=0.

 **********************************************************************

            Population analysis using the SCF Density.

 **********************************************************************

 Orbital symmetries:
       Occupied  (SGU) (SGG) (SGG) (SGG) (SGU) (SGG) (SGU) (PIU)
                 (PIU) (PIG) (PIG)
       Virtual   (SGG) (PIU) (PIU) (SGU) (SGG) (PIG) (PIG) (PIU)
                 (PIU) (SGG) (SGU) (PIU) (PIU) (DLTG) (DLTG) (SGU)
                 (SGG) (PIU) (PIU) (PIG) (PIG) (SGG) (SGU) (DLTU)
                 (DLTU) (SGG) (DLTG) (DLTG) (PIG) (PIG) (SGU) (PIU)
                 (PIU) (SGG) (SGU) (PHIU) (PHIU) (DLTG) (DLTG)
                 (PIU) (PIU) (PIG) (PIG) (SGU) (DLTU) (DLTU) (SGU)
                 (PIG) (PIG) (SGG) (PIU) (PIU) (SGG) (PHIG) (PHIG)
                 (DLTU) (DLTU) (DLTG) (DLTG) (PHIU) (PHIU) (PIU)
                 (PIU) (SGG) (SGU) (SGG) (PIG) (PIG) (SGU) (DLTG)
                 (DLTG) (DLTU) (DLTU) (PIG) (PIG) (SGU) (PIU) (PIU)
                 (PIU) (PIU) (DLTG) (DLTG) (PHIU) (PHIU) (SGG)
                 (SGU) (PIG) (PIG) (DLTU) (DLTU) (PIU) (PIU) (SGG)
                 (PIG) (PIG) (SGG) (SGU) (PIU) (PIU) (SGU) (PHIG)
                 (PHIG) (PHIU) (PHIU) (DLTG) (DLTG) (DLTU) (DLTU)
                 (DLTG) (DLTG) (PIG) (PIG) (SGU) (DLTU) (DLTU)
                 (PIU) (PIU) (SGG) (SGG) (PIG) (PIG) (SGU) (PIU)
                 (PIU) (SGG) (SGG) (SGU)
 The electronic state is 1-SGG.
 Alpha  occ. eigenvalues --  -20.65294 -20.65289 -11.46101  -1.53232  -1.47928
 Alpha  occ. eigenvalues --   -0.80109  -0.74400  -0.71614  -0.71614  -0.54496
 Alpha  occ. eigenvalues --   -0.54496
 Alpha virt. eigenvalues --    0.04738   0.07282   0.07282   0.07883   0.16100
 Alpha virt. eigenvalues --    0.16370   0.16370   0.20118   0.20118   0.20734
 Alpha virt. eigenvalues --    0.22439   0.24728   0.24728   0.27872   0.27872
 Alpha virt. eigenvalues --    0.29660   0.44082   0.45335   0.45335   0.48288
 Alpha virt. eigenvalues --    0.48288   0.51537   0.60364   0.65458   0.65458
 Alpha virt. eigenvalues --    0.71347   0.78164   0.78164   0.78979   0.78979
 Alpha virt. eigenvalues --    0.87903   0.88014   0.88014   0.93719   1.03725
 Alpha virt. eigenvalues --    1.04133   1.04133   1.08807   1.08807   1.10879
 Alpha virt. eigenvalues --    1.10879   1.22743   1.22743   1.33045   1.34372
 Alpha virt. eigenvalues --    1.34372   1.35855   1.50144   1.50144   1.51158
 Alpha virt. eigenvalues --    1.62889   1.62889   1.78813   2.03139   2.03139
 Alpha virt. eigenvalues --    2.19113   2.19113   2.25157   2.25157   2.28085
 Alpha virt. eigenvalues --    2.28085   2.32629   2.32629   2.37821   2.38344
 Alpha virt. eigenvalues --    2.48630   2.49474   2.49474   2.59097   2.61861
 Alpha virt. eigenvalues --    2.61861   2.78194   2.78194   2.90117   2.90117
 Alpha virt. eigenvalues --    2.91794   2.97542   2.97542   3.03765   3.03765
 Alpha virt. eigenvalues --    3.35073   3.35073   3.35191   3.35191   3.83303
 Alpha virt. eigenvalues --    3.90253   3.95399   3.95399   4.00862   4.00862
 Alpha virt. eigenvalues --    4.15125   4.15125   4.51319   4.96822   4.96822
 Alpha virt. eigenvalues --    5.29837   5.54023   5.74654   5.74654   5.79385
 Alpha virt. eigenvalues --    6.43614   6.43614   6.55069   6.55069   6.67870
 Alpha virt. eigenvalues --    6.67870   6.89819   6.89819   7.06481   7.06481
 Alpha virt. eigenvalues --    7.14067   7.14067   7.17741   7.22097   7.22097
 Alpha virt. eigenvalues --    7.31522   7.31522   7.40904   7.51735   7.73587
 Alpha virt. eigenvalues --    7.73587   8.06282   8.12620   8.12620  14.11216
 Alpha virt. eigenvalues --   16.23052  21.47813
          Condensed to atoms (all electrons):
               1          2          3
     1  O    7.784111   0.594050  -0.137405
     2  C    0.594050   4.330390   0.594050
     3  O   -0.137405   0.594050   7.784111
 Mulliken charges:
               1
     1  O   -0.240755
     2  C    0.481511
     3  O   -0.240755
 Sum of Mulliken charges =  -0.00000
 Mulliken charges with hydrogens summed into heavy atoms:
               1
     1  O   -0.240755
     2  C    0.481511
     3  O   -0.240755
 Electronic spatial extent (au):  <R**2>=            113.7236
 Charge=             -0.0000 electrons
 Dipole moment (field-independent basis, Debye):
    X=             -0.0000    Y=              0.0000    Z=             -0.0000  Tot=              0.0000
 Quadrupole moment (field-independent basis, Debye-Ang):
   XX=            -14.8040   YY=            -14.8040   ZZ=            -19.9431
   XY=              0.0000   XZ=              0.0000   YZ=              0.0000
 Traceless Quadrupole moment (field-independent basis, Debye-Ang):
   XX=              1.7130   YY=              1.7130   ZZ=             -3.4260
   XY=              0.0000   XZ=              0.0000   YZ=              0.0000
 Octapole moment (field-independent basis, Debye-Ang**2):
  XXX=             -0.0000  YYY=             -0.0000  ZZZ=             -0.0000  XYY=             -0.0000
  XXY=             -0.0000  XXZ=             -0.0000  XZZ=             -0.0000  YZZ=              0.0000
  YYZ=              0.0000  XYZ=             -0.0000
 Hexadecapole moment (field-independent basis, Debye-Ang**3):
 XXXX=            -11.6296 YYYY=            -11.6296 ZZZZ=           -103.2197 XXXY=              0.0000
 XXXZ=              0.0000 YYYX=              0.0000 YYYZ=              0.0000 ZZZX=              0.0000
 ZZZY=              0.0000 XXYY=             -3.8765 XXZZ=            -19.0087 YYZZ=            -19.0087
 XXYZ=              0.0000 YYXZ=              0.0000 ZZXY=             -0.0000
 N-N= 5.839196810152D+01 E-N=-5.598694259049D+02  KE= 1.873579378762D+02
 Symmetry AG   KE= 1.013558372467D+02
 Symmetry B1G  KE= 2.078989474377D-32
 Symmetry B2G  KE= 4.681493435653D+00
 Symmetry B3G  KE= 4.681493435653D+00
 Symmetry AU   KE= 1.184049241266D-31
 Symmetry B1U  KE= 6.928694940851D+01
 Symmetry B2U  KE= 3.676082174814D+00
 Symmetry B3U  KE= 3.676082174814D+00
 Leave Link  601 at Mon Jan  5 18:08:31 2026, MaxMem= 12348030976 cpu:               0.1 elap:               0.1
 (Enter /uufs/chpc.utah.edu/sys/installdir/gaussian16/C01/AVX2/g16/l114.exe)

 NEF-NEF-NEF-NEF-NEF-NEF-NEF-NEF-NEF-NEF-NEF-NEF-NEF-NEF-NEF-NEF-NEF-NEF-
 NUMERICAL EIGENVECTOR FOLLOWING MINIMUM SEARCH
 NUMERICALLY ESTIMATING GRADIENTS
 ITERATION   0 VARIABLE  1 STEP  1

 NEF-NEF-NEF-NEF-NEF-NEF-NEF-NEF-NEF-NEF-NEF-NEF-NEF-NEF-NEF-NEF-NEF-NEF-
 Leave Link  114 at Mon Jan  5 18:08:31 2026, MaxMem= 12348030976 cpu:               0.0 elap:               0.1
 (Enter /uufs/chpc.utah.edu/sys/installdir/gaussian16/C01/AVX2/g16/l202.exe)
 ---------------------------------------------------------------------------------------------------
                            Z-MATRIX (ANGSTROMS AND DEGREES)
   CD    Cent   Atom    N1       Length/X        N2       Alpha/Y        N3        Beta/Z          J
 ---------------------------------------------------------------------------------------------------
      1      1  O 
      2      2  C        1   1.160243(     1)
      3         X        2   1.000000(     2)      1   90.000(     4)
      4      3  O        2   1.160243(     3)      3   90.000(     5)      1  180.000(     6)      0
 ---------------------------------------------------------------------------------------------------
                         Z-Matrix orientation:                         
 ---------------------------------------------------------------------
 Center     Atomic      Atomic             Coordinates (Angstroms)
 Number     Number       Type             X           Y           Z
 ---------------------------------------------------------------------
      1          8           0        0.000000    0.000000    0.000000
      2          6           0        0.000000    0.000000    1.160243
      3         -1           0        1.000000    0.000000    1.160243
      4          8           0        0.000000   -0.000000    2.320486
 ---------------------------------------------------------------------
                    Distance matrix (angstroms):
                    1          2          3          4
     1  O    0.000000
     2  C    1.160243   0.000000
     3  X    1.531719   1.000000   0.000000
     4  O    2.320486   1.160243   1.531719   0.000000
 Stoichiometry    CO2
 Framework group  D*H[O(C),C*(O.O)]
 Deg. of freedom     1
 Prev. full point group           D*H     NOp   8
 Prev. largest Abelian subgroup   D2H     NOp   8
       concise Abelian subgroup   C2      NOp   2
                   Standard orientation:
 ---------------------------------------------------------------------
 Center     Atomic                     Coordinates (Angstroms)
 Number     Number                        X           Y           Z
 ---------------------------------------------------------------------
      1          8                    0.000000    0.000000    1.160243
      2          6                    0.000000    0.000000    0.000000
      3          8                    0.000000    0.000000   -1.160243
 ---------------------------------------------------------------------
 Rotational constants (GHZ):           0.0000000          11.7356512          11.7356512
 Leave Link  202 at Mon Jan  5 18:08:32 2026, MaxMem= 12348030976 cpu:               0.0 elap:               0.0
 (Enter /uufs/chpc.utah.edu/sys/installdir/gaussian16/C01/AVX2/g16/l301.exe)
 Standard basis: Aug-CC-pVTZ (5D, 7F)
 Ernie: Thresh=  0.10000D-02 Tol=  0.10000D-17 Strict=F.
 Ernie:  6 primitive shells out of 90 were deleted.
 There are    38 symmetry adapted cartesian basis functions of AG  symmetry.
 There are     8 symmetry adapted cartesian basis functions of B1G symmetry.
 There are    16 symmetry adapted cartesian basis functions of B2G symmetry.
 There are    16 symmetry adapted cartesian basis functions of B3G symmetry.
 There are     7 symmetry adapted cartesian basis functions of AU  symmetry.
 There are    34 symmetry adapted cartesian basis functions of B1U symmetry.
 There are    23 symmetry adapted cartesian basis functions of B2U symmetry.
 There are    23 symmetry adapted cartesian basis functions of B3U symmetry.
 There are    30 symmetry adapted basis functions of AG  symmetry.
 There are     8 symmetry adapted basis functions of B1G symmetry.
 There are    14 symmetry adapted basis functions of B2G symmetry.
 There are    14 symmetry adapted basis functions of B3G symmetry.
 There are     7 symmetry adapted basis functions of AU  symmetry.
 There are    27 symmetry adapted basis functions of B1U symmetry.
 There are    19 symmetry adapted basis functions of B2U symmetry.
 There are    19 symmetry adapted basis functions of B3U symmetry.
   138 basis functions,   219 primitive gaussians,   165 cartesian basis functions
    11 alpha electrons       11 beta electrons
       nuclear repulsion energy        58.3797271959 Hartrees.
 IExCor=    0 DFT=F Ex=HF Corr=None ExCW=0 ScaHFX=  1.000000
 ScaDFX=  1.000000  1.000000  1.000000  1.000000 ScalE2=  1.000000  1.000000
 IRadAn=      5 IRanWt=     -1 IRanGd=            0 ICorTp=0 IEmpDi=  4
 NAtoms=    3 NActive=    3 NUniq=    2 SFac= 2.25D+00 NAtFMM=   60 NAOKFM=F Big=F
 Integral buffers will be    131072 words long.
 Raffenetti 1 integral format.
 Two-electron integral symmetry is turned on.
 Leave Link  301 at Mon Jan  5 18:08:32 2026, MaxMem= 12348030976 cpu:               0.1 elap:               0.1
 (Enter /uufs/chpc.utah.edu/sys/installdir/gaussian16/C01/AVX2/g16/l302.exe)
 NPDir=0 NMtPBC=     1 NCelOv=     1 NCel=       1 NClECP=     1 NCelD=      1
         NCelK=      1 NCelE2=     1 NClLst=     1 CellRange=     0.0.
 One-electron integrals computed using PRISM.
 One-electron integral symmetry used in STVInt
 NBasis=   138 RedAO= T EigKep=  3.51D-04  NBF=    30     8    14    14     7    27    19    19
 NBsUse=   138 1.00D-06 EigRej= -1.00D+00 NBFU=    30     8    14    14     7    27    19    19
 Leave Link  302 at Mon Jan  5 18:08:32 2026, MaxMem= 12348030976 cpu:               0.2 elap:               0.2
 (Enter /uufs/chpc.utah.edu/sys/installdir/gaussian16/C01/AVX2/g16/l303.exe)
 DipDrv:  MaxL=1.
 Leave Link  303 at Mon Jan  5 18:08:32 2026, MaxMem= 12348030976 cpu:               0.1 elap:               0.1
 (Enter /uufs/chpc.utah.edu/sys/installdir/gaussian16/C01/AVX2/g16/l401.exe)
 Initial guess from the checkpoint file:  "co2_ccsdt_opt.chk"
 B after Tr=    -0.000000    0.000000    0.000000
         Rot=    1.000000    0.000000    0.000000    0.000000 Ang=   0.00 deg.
 Guess basis will be translated and rotated to current coordinates.
 JPrj=2 DoOrth=T DoCkMO=T.
 Initial guess orbital symmetries:
       Occupied  (SGU) (SGG) (SGG) (SGG) (SGU) (SGG) (SGU) (PIU)
                 (PIU) (PIG) (PIG)
       Virtual   (SGG) (PIU) (PIU) (SGU) (SGG) (PIG) (PIG) (PIU)
                 (PIU) (SGG) (SGU) (PIU) (PIU) (DLTG) (DLTG) (SGU)
                 (SGG) (PIU) (PIU) (PIG) (PIG) (SGG) (SGU) (DLTU)
                 (DLTU) (SGG) (DLTG) (DLTG) (PIG) (PIG) (SGU) (PIU)
                 (PIU) (SGG) (SGU) (PHIU) (PHIU) (DLTG) (DLTG)
                 (PIU) (PIU) (PIG) (PIG) (SGU) (DLTU) (DLTU) (SGU)
                 (PIG) (PIG) (SGG) (PIU) (PIU) (SGG) (PHIG) (PHIG)
                 (DLTU) (DLTU) (DLTG) (DLTG) (PHIU) (PHIU) (PIU)
                 (PIU) (SGG) (SGU) (SGG) (PIG) (PIG) (SGU) (DLTG)
                 (DLTG) (DLTU) (DLTU) (PIG) (PIG) (SGU) (PIU) (PIU)
                 (PIU) (PIU) (DLTG) (DLTG) (PHIU) (PHIU) (SGG)
                 (SGU) (PIG) (PIG) (DLTU) (DLTU) (PIU) (PIU) (SGG)
                 (PIG) (PIG) (SGG) (SGU) (PIU) (PIU) (SGU) (PHIG)
                 (PHIG) (PHIU) (PHIU) (DLTG) (DLTG) (DLTU) (DLTU)
                 (DLTG) (DLTG) (PIG) (PIG) (SGU) (DLTU) (DLTU)
                 (PIU) (PIU) (SGG) (SGG) (PIG) (PIG) (SGU) (PIU)
                 (PIU) (SGG) (SGG) (SGU)
 The electronic state of the initial guess is 1-SGG.
 Generating alternative initial guess.
 ExpMin= 3.57D-02 ExpMax= 1.53D+04 ExpMxC= 5.22D+02 IAcc=3 IRadAn=         5 AccDes= 0.00D+00
 Harris functional with IExCor=  205 and IRadAn=       5 diagonalized for initial guess.
 HarFok:  IExCor=  205 AccDes= 0.00D+00 IRadAn=         5 IDoV= 1 UseB2=F ITyADJ=14
 ICtDFT=  3500011 ScaDFX=  1.000000  1.000000  1.000000  1.000000
 FoFCou: FMM=F IPFlag=           0 FMFlag=      100000 FMFlg1=           0
         NFxFlg=           0 DoJE=T BraDBF=F KetDBF=T FulRan=T
         wScrn=  0.000000 ICntrl=       500 IOpCl=  0 I1Cent=   200000004 NGrid=           0
         NMat0=    1 NMatS0=      1 NMatT0=    0 NMatD0=    1 NMtDS0=    0 NMtDT0=    0
 Petite list used in FoFCou.
 Harris En= -187.739458367009    
 Leave Link  401 at Mon Jan  5 18:08:32 2026, MaxMem= 12348030976 cpu:               0.3 elap:               0.3
 (Enter /uufs/chpc.utah.edu/sys/installdir/gaussian16/C01/AVX2/g16/l502.exe)
 Keep R1 ints in memory in symmetry-blocked form, NReq=51901092.
 FoFCou: FMM=F IPFlag=           0 FMFlag=           0 FMFlg1=           0
         NFxFlg=           0 DoJE=F BraDBF=F KetDBF=F FulRan=T
         wScrn=  0.000000 ICntrl=       600 IOpCl=  0 I1Cent=           0 NGrid=           0
         NMat0=    1 NMatS0=   9591 NMatT0=    0 NMatD0=    1 NMtDS0=    0 NMtDT0=    0
 Petite list used in FoFCou.
 Closed shell SCF:
 Using DIIS extrapolation, IDIIS=  1040.
 NGot= 12348030976 LenX= 12342072257 LenY= 12342044591
 Requested convergence on RMS density matrix=1.00D-12 within 200 cycles.
 Requested convergence on MAX density matrix=1.00D-10.
 Requested convergence on             energy=1.00D-10.
 No special actions if energy rises.

 Cycle   1  Pass 1  IDiag  1:
 E= -187.709454218766    
 DIIS: error= 4.13D-05 at cycle   1 NSaved=   1.
 NSaved= 1 IEnMin= 1 EnMin= -187.709454218766     IErMin= 1 ErrMin= 4.13D-05
 ErrMax= 4.13D-05  0.00D+00 EMaxC= 1.00D-01 BMatC= 1.22D-07 BMatP= 1.22D-07
 IDIUse=1 WtCom= 1.00D+00 WtEn= 0.00D+00
 Coeff-Com:  0.100D+01
 Coeff:      0.100D+01
 Gap=     0.592 Goal=   None    Shift=    0.000
 RMSDP=2.34D-06 MaxDP=7.50D-05              OVMax= 7.41D-05

 Cycle   2  Pass 1  IDiag  1:
 E= -187.709454304635     Delta-E=       -0.000000085869 Rises=F Damp=F
 DIIS: error= 1.49D-05 at cycle   2 NSaved=   2.
 NSaved= 2 IEnMin= 2 EnMin= -187.709454304635     IErMin= 2 ErrMin= 1.49D-05
 ErrMax= 1.49D-05  0.00D+00 EMaxC= 1.00D-01 BMatC= 8.50D-09 BMatP= 1.22D-07
 IDIUse=1 WtCom= 1.00D+00 WtEn= 0.00D+00
 Coeff-Com:  0.935D-01 0.906D+00
 Coeff:      0.935D-01 0.906D+00
 Gap=     0.592 Goal=   None    Shift=    0.000
 RMSDP=4.15D-07 MaxDP=1.35D-05 DE=-8.59D-08 OVMax= 3.19D-05

 Cycle   3  Pass 1  IDiag  1:
 E= -187.709454312155     Delta-E=       -0.000000007520 Rises=F Damp=F
 DIIS: error= 4.98D-06 at cycle   3 NSaved=   3.
 NSaved= 3 IEnMin= 3 EnMin= -187.709454312155     IErMin= 3 ErrMin= 4.98D-06
 ErrMax= 4.98D-06  0.00D+00 EMaxC= 1.00D-01 BMatC= 6.51D-10 BMatP= 8.50D-09
 IDIUse=1 WtCom= 1.00D+00 WtEn= 0.00D+00
 Coeff-Com: -0.566D-01-0.617D-01 0.112D+01
 Coeff:     -0.566D-01-0.617D-01 0.112D+01
 Gap=     0.592 Goal=   None    Shift=    0.000
 RMSDP=1.70D-07 MaxDP=5.11D-06 DE=-7.52D-09 OVMax= 1.57D-05

 Cycle   4  Pass 1  IDiag  1:
 E= -187.709454313315     Delta-E=       -0.000000001160 Rises=F Damp=F
 DIIS: error= 1.51D-06 at cycle   4 NSaved=   4.
 NSaved= 4 IEnMin= 4 EnMin= -187.709454313315     IErMin= 4 ErrMin= 1.51D-06
 ErrMax= 1.51D-06  0.00D+00 EMaxC= 1.00D-01 BMatC= 4.39D-11 BMatP= 6.51D-10
 IDIUse=1 WtCom= 1.00D+00 WtEn= 0.00D+00
 Coeff-Com:  0.133D-01-0.330D-01-0.344D+00 0.136D+01
 Coeff:      0.133D-01-0.330D-01-0.344D+00 0.136D+01
 Gap=     0.592 Goal=   None    Shift=    0.000
 RMSDP=6.66D-08 MaxDP=2.54D-06 DE=-1.16D-09 OVMax= 5.76D-06

 Cycle   5  Pass 1  IDiag  1:
 E= -187.709454313413     Delta-E=       -0.000000000098 Rises=F Damp=F
 DIIS: error= 1.28D-07 at cycle   5 NSaved=   5.
 NSaved= 5 IEnMin= 5 EnMin= -187.709454313413     IErMin= 5 ErrMin= 1.28D-07
 ErrMax= 1.28D-07  0.00D+00 EMaxC= 1.00D-01 BMatC= 7.72D-13 BMatP= 4.39D-11
 IDIUse=1 WtCom= 1.00D+00 WtEn= 0.00D+00
 Coeff-Com: -0.215D-02 0.977D-02 0.649D-01-0.362D+00 0.129D+01
 Coeff:     -0.215D-02 0.977D-02 0.649D-01-0.362D+00 0.129D+01
 Gap=     0.592 Goal=   None    Shift=    0.000
 RMSDP=6.81D-09 MaxDP=1.64D-07 DE=-9.81D-11 OVMax= 5.12D-07

 Cycle   6  Pass 1  IDiag  1:
 E= -187.709454313415     Delta-E=       -0.000000000001 Rises=F Damp=F
 DIIS: error= 4.44D-08 at cycle   6 NSaved=   6.
 NSaved= 6 IEnMin= 6 EnMin= -187.709454313415     IErMin= 6 ErrMin= 4.44D-08
 ErrMax= 4.44D-08  0.00D+00 EMaxC= 1.00D-01 BMatC= 6.01D-14 BMatP= 7.72D-13
 IDIUse=1 WtCom= 1.00D+00 WtEn= 0.00D+00
 Coeff-Com: -0.697D-03 0.320D-02 0.197D-01-0.107D+00 0.231D+00 0.854D+00
 Coeff:     -0.697D-03 0.320D-02 0.197D-01-0.107D+00 0.231D+00 0.854D+00
 Gap=     0.592 Goal=   None    Shift=    0.000
 RMSDP=1.23D-09 MaxDP=4.95D-08 DE=-1.39D-12 OVMax= 8.08D-08

 Cycle   7  Pass 1  IDiag  1:
 E= -187.709454313415     Delta-E=       -0.000000000000 Rises=F Damp=F
 DIIS: error= 1.28D-08 at cycle   7 NSaved=   7.
 NSaved= 7 IEnMin= 7 EnMin= -187.709454313415     IErMin= 7 ErrMin= 1.28D-08
 ErrMax= 1.28D-08  0.00D+00 EMaxC= 1.00D-01 BMatC= 7.34D-15 BMatP= 6.01D-14
 IDIUse=1 WtCom= 1.00D+00 WtEn= 0.00D+00
 Coeff-Com:  0.147D-03-0.770D-03-0.516D-02 0.324D-01-0.137D+00 0.219D+00
 Coeff-Com:  0.892D+00
 Coeff:      0.147D-03-0.770D-03-0.516D-02 0.324D-01-0.137D+00 0.219D+00
 Coeff:      0.892D+00
 Gap=     0.592 Goal=   None    Shift=    0.000
 RMSDP=5.59D-10 MaxDP=1.49D-08 DE=-1.99D-13 OVMax= 3.13D-08

 Cycle   8  Pass 1  IDiag  1:
 E= -187.709454313415     Delta-E=       -0.000000000000 Rises=F Damp=F
 DIIS: error= 1.27D-09 at cycle   8 NSaved=   8.
 NSaved= 8 IEnMin= 8 EnMin= -187.709454313415     IErMin= 8 ErrMin= 1.27D-09
 ErrMax= 1.27D-09  0.00D+00 EMaxC= 1.00D-01 BMatC= 5.19D-17 BMatP= 7.34D-15
 IDIUse=1 WtCom= 1.00D+00 WtEn= 0.00D+00
 Coeff-Com: -0.158D-05 0.953D-05 0.161D-03-0.908D-03 0.716D-02-0.485D-01
 Coeff-Com: -0.807D-01 0.112D+01
 Coeff:     -0.158D-05 0.953D-05 0.161D-03-0.908D-03 0.716D-02-0.485D-01
 Coeff:     -0.807D-01 0.112D+01
 Gap=     0.592 Goal=   None    Shift=    0.000
 RMSDP=7.95D-11 MaxDP=1.66D-09 DE=-3.41D-13 OVMax= 5.83D-09

 Cycle   9  Pass 1  IDiag  1:
 E= -187.709454313415     Delta-E=        0.000000000000 Rises=F Damp=F
 DIIS: error= 1.23D-10 at cycle   9 NSaved=   9.
 NSaved= 9 IEnMin= 8 EnMin= -187.709454313415     IErMin= 9 ErrMin= 1.23D-10
 ErrMax= 1.23D-10  0.00D+00 EMaxC= 1.00D-01 BMatC= 3.27D-19 BMatP= 5.19D-17
 IDIUse=1 WtCom= 1.00D+00 WtEn= 0.00D+00
 Coeff-Com: -0.774D-06 0.549D-05 0.145D-04-0.142D-03 0.336D-03 0.482D-02
 Coeff-Com: -0.253D-03-0.139D+00 0.113D+01
 Coeff:     -0.774D-06 0.549D-05 0.145D-04-0.142D-03 0.336D-03 0.482D-02
 Coeff:     -0.253D-03-0.139D+00 0.113D+01
 Gap=     0.592 Goal=   None    Shift=    0.000
 RMSDP=7.77D-12 MaxDP=1.16D-10 DE= 3.41D-13 OVMax= 3.58D-10

 Cycle  10  Pass 1  IDiag  1:
 E= -187.709454313415     Delta-E=       -0.000000000000 Rises=F Damp=F
 DIIS: error= 9.72D-12 at cycle  10 NSaved=  10.
 NSaved=10 IEnMin=10 EnMin= -187.709454313415     IErMin=10 ErrMin= 9.72D-12
 ErrMax= 9.72D-12  0.00D+00 EMaxC= 1.00D-01 BMatC= 2.40D-21 BMatP= 3.27D-19
 IDIUse=1 WtCom= 1.00D+00 WtEn= 0.00D+00
 Coeff-Com:  0.208D-06-0.118D-05-0.659D-05 0.452D-04-0.179D-03-0.247D-03
 Coeff-Com:  0.961D-03 0.121D-01-0.182D+00 0.117D+01
 Coeff:      0.208D-06-0.118D-05-0.659D-05 0.452D-04-0.179D-03-0.247D-03
 Coeff:      0.961D-03 0.121D-01-0.182D+00 0.117D+01
 Gap=     0.592 Goal=   None    Shift=    0.000
 RMSDP=7.56D-13 MaxDP=1.14D-11 DE=-3.69D-13 OVMax= 2.16D-11

 SCF Done:  E(RHF) =  -187.709454313     A.U. after   10 cycles
            NFock= 10  Conv=0.76D-12     -V/T= 2.0019
 KE= 1.873554733603D+02 PE=-5.598428839946D+02 EE= 1.263982291250D+02
 Leave Link  502 at Mon Jan  5 18:08:40 2026, MaxMem= 12348030976 cpu:               7.6 elap:               7.7
 (Enter /uufs/chpc.utah.edu/sys/installdir/gaussian16/C01/AVX2/g16/l801.exe)
 Windowed orbitals will be sorted by symmetry type.
 ExpMin= 3.57D-02 ExpMax= 1.53D+04 ExpMxC= 5.22D+02 IAcc=3 IRadAn=         5 AccDes= 0.00D+00
 HarFok:  IExCor=  205 AccDes= 0.00D+00 IRadAn=         5 IDoV=-2 UseB2=F ITyADJ=14
 ICtDFT= 12500011 ScaDFX=  1.000000  1.000000  1.000000  1.000000
 Largest valence mixing into a core orbital is  1.96D-04
 Largest core mixing into a valence orbital is  2.78D-05
 Range of M.O.s used for correlation:     4   138
 NBasis=   138 NAE=    11 NBE=    11 NFC=     3 NFV=     0
 NROrb=    135 NOA=     8 NOB=     8 NVA=   127 NVB=   127

 **** Warning!!: The largest alpha MO coefficient is  0.19957971D+02

 Leave Link  801 at Mon Jan  5 18:08:40 2026, MaxMem= 12348030976 cpu:               0.2 elap:               0.2
 (Enter /uufs/chpc.utah.edu/sys/installdir/gaussian16/C01/AVX2/g16/l804.exe)
 Closed-shell transformation, MDV= 12348030976 ITran=4 ISComp=2.
 Semi-Direct transformation.
 ModeAB=           4 MOrb=             8 LenV=   12330918307
 LASXX=      1201694 LTotXX=     1201694 LenRXX=     2435562
 LTotAB=     1233868 MaxLAS=     8731800 LenRXY=           0
 NonZer=     3637256 LenScr=     5898240 LnRSAI=     8731800
 LnScr1=    13369344 LExtra=           0 Total=     30434946
 MaxDsk=          -1 SrtSym=           T ITran=            4
 DoSDTr:  NPSUse=  1
 JobTyp=0 Pass  1:  I=   1 to   8.
 (rs|ai) integrals will be sorted in core.
 Complete sort for first half transformation.
 First half transformation complete.
 Complete sort for second half transformation.
 Second half transformation complete.
 Spin components of T(2) and E(2):
     alpha-alpha T2 =       0.2280914577D-01 E2=     -0.8162676646D-01
     alpha-beta  T2 =       0.1159411440D+00 E2=     -0.4485454519D+00
     beta-beta   T2 =       0.2280914577D-01 E2=     -0.8162676646D-01
 ANorm=    0.1077756668D+01
 E2 =    -0.6117989849D+00 EUMP2 =    -0.18832125329828D+03
 Leave Link  804 at Mon Jan  5 18:08:46 2026, MaxMem= 12348030976 cpu:               5.7 elap:               5.7
 (Enter /uufs/chpc.utah.edu/sys/installdir/gaussian16/C01/AVX2/g16/l913.exe)
 CIDS:  MDV= 12348030976.
 Frozen-core window:  NFC=   3 NFV=   0.
 IFCWin=0 IBDFC=1 NFBD=     0     0 NFCmp=     0     0 NFFFC=     0     0
 Using DD3R+UMP44R for 1st iteration.
 Using DD4RQ for 2nd and later iterations.
 Keep R2 and R3 ints in memory in symmetry-blocked form, NReq=51906066.
 FoFCou: FMM=F IPFlag=           0 FMFlag=           0 FMFlg1=           0
         NFxFlg=           0 DoJE=F BraDBF=F KetDBF=F FulRan=T
         wScrn=  0.000000 ICntrl=       600 IOpCl=  0 I1Cent=           0 NGrid=           0
         NMat0=    1 NMatS0=   9591 NMatT0=    0 NMatD0=    1 NMtDS0=    0 NMtDT0=    0
 Petite list used in FoFCou.
 CIDS: In Core Option IDoMem=           1.
 CCSD(T)
 =======
 Iterations= 200 Convergence= 0.100D-09
 Produce multiple copies of IABC intergrals
 Iteration Nr.   1
 **********************
 DD1Dir will call FoFMem   1 times, MxPair=        72
 NAB=    36 NAA=     0 NBB=     0.
 MP4(R+Q)=  0.14147183D-01
 Maximum subspace dimension=  5
 A-vector RMS=  4.2762239D-03 Max=  3.6255402D-02 conv= 1.00D-08.
 RLE energy=       -0.5806498906
 E3=        0.17915254D-01        EUMP3=      -0.18830333804D+03
 E4(DQ)=   -0.45443531D-03        UMP4(DQ)=   -0.18830379248D+03
 E4(SDQ)=  -0.11355088D-01        UMP4(SDQ)=  -0.18831469313D+03
 VARIATIONAL ENERGIES WITH THE FIRST-ORDER WAVEFUNCTION:
 DE(Corr)= -0.57897978     E(Corr)=     -188.28843409    
 NORM(A)=   0.10702877D+01
 Iteration Nr.   2
 **********************
 DD1Dir will call FoFMem   1 times, MxPair=        72
 NAB=    36 NAA=     0 NBB=     0.
 A-vector RMS=  6.1649049D-04 Max=  7.8334162D-03 conv= 1.00D-08.
 RLE energy=       -0.6000678857
 DE(Corr)= -0.60193728     E(CORR)=     -188.31139160     Delta=-2.30D-02
 NORM(A)=   0.10767430D+01
 Iteration Nr.   3
 **********************
 DD1Dir will call FoFMem   1 times, MxPair=        72
 NAB=    36 NAA=     0 NBB=     0.
 A-vector RMS=  6.9307277D-04 Max=  6.4574759D-03 conv= 1.00D-08.
 RLE energy=       -0.6011277386
 DE(Corr)= -0.59923006     E(CORR)=     -188.30868438     Delta= 2.71D-03
 NORM(A)=   0.10786940D+01
 Iteration Nr.   4
 **********************
 DD1Dir will call FoFMem   1 times, MxPair=        72
 NAB=    36 NAA=     0 NBB=     0.
 A-vector RMS=  8.0400133D-05 Max=  6.9120607D-04 conv= 1.00D-08.
 RLE energy=       -0.6011901670
 DE(Corr)= -0.60107016     E(CORR)=     -188.31052447     Delta=-1.84D-03
 NORM(A)=   0.10792875D+01
 Iteration Nr.   5
 **********************
 DD1Dir will call FoFMem   1 times, MxPair=        72
 NAB=    36 NAA=     0 NBB=     0.
 A-vector RMS=  3.1710820D-05 Max=  2.5136708D-04 conv= 1.00D-08.
 RLE energy=       -0.6012570884
 DE(Corr)= -0.60123840     E(CORR)=     -188.31069272     Delta=-1.68D-04
 NORM(A)=   0.10794120D+01
 Iteration Nr.   6
 **********************
 DD1Dir will call FoFMem   1 times, MxPair=        72
 NAB=    36 NAA=     0 NBB=     0.
 A-vector RMS=  7.2574491D-06 Max=  5.5236862D-05 conv= 1.00D-08.
 RLE energy=       -0.6012400192
 DE(Corr)= -0.60124281     E(CORR)=     -188.31069712     Delta=-4.41D-06
 NORM(A)=   0.10794154D+01
 Iteration Nr.   7
 **********************
 DD1Dir will call FoFMem   1 times, MxPair=        72
 NAB=    36 NAA=     0 NBB=     0.
 A-vector RMS=  2.3719027D-06 Max=  1.6026738D-05 conv= 1.00D-08.
 RLE energy=       -0.6012414786
 DE(Corr)= -0.60124415     E(CORR)=     -188.31069847     Delta=-1.35D-06
 NORM(A)=   0.10794164D+01
 Iteration Nr.   8
 **********************
 DD1Dir will call FoFMem   1 times, MxPair=        72
 NAB=    36 NAA=     0 NBB=     0.
 A-vector RMS=  9.6745919D-07 Max=  6.0946361D-06 conv= 1.00D-08.
 RLE energy=       -0.6012427787
 DE(Corr)= -0.60124292     E(CORR)=     -188.31069724     Delta= 1.23D-06
 NORM(A)=   0.10794171D+01
 Iteration Nr.   9
 **********************
 DD1Dir will call FoFMem   1 times, MxPair=        72
 NAB=    36 NAA=     0 NBB=     0.
 A-vector RMS=  2.2039604D-07 Max=  1.3220658D-06 conv= 1.00D-08.
 RLE energy=       -0.6012433325
 DE(Corr)= -0.60124338     E(CORR)=     -188.31069769     Delta=-4.56D-07
 NORM(A)=   0.10794173D+01
 Iteration Nr.  10
 **********************
 DD1Dir will call FoFMem   1 times, MxPair=        72
 NAB=    36 NAA=     0 NBB=     0.
 A-vector RMS=  1.0277146D-07 Max=  8.2376342D-07 conv= 1.00D-08.
 RLE energy=       -0.6012432571
 DE(Corr)= -0.60124324     E(CORR)=     -188.31069755     Delta= 1.43D-07
 NORM(A)=   0.10794174D+01
 Iteration Nr.  11
 **********************
 DD1Dir will call FoFMem   1 times, MxPair=        72
 NAB=    36 NAA=     0 NBB=     0.
 A-vector RMS=  3.1295554D-08 Max=  2.7072998D-07 conv= 1.00D-08.
 RLE energy=       -0.6012434576
 DE(Corr)= -0.60124345     E(CORR)=     -188.31069776     Delta=-2.11D-07
 NORM(A)=   0.10794175D+01
 Iteration Nr.  12
 **********************
 DD1Dir will call FoFMem   1 times, MxPair=        72
 NAB=    36 NAA=     0 NBB=     0.
 A-vector RMS=  1.3787095D-08 Max=  1.0569756D-07 conv= 1.00D-08.
 RLE energy=       -0.6012434322
 DE(Corr)= -0.60124342     E(CORR)=     -188.31069773     Delta= 3.19D-08
 NORM(A)=   0.10794176D+01
 Iteration Nr.  13
 **********************
 DD1Dir will call FoFMem   1 times, MxPair=        72
 NAB=    36 NAA=     0 NBB=     0.
 A-vector RMS=  4.6922140D-09 Max=  3.0103950D-08 conv= 1.00D-08.
 RLE energy=       -0.6012434503
 DE(Corr)= -0.60124345     E(CORR)=     -188.31069776     Delta=-3.16D-08
 NORM(A)=   0.10794176D+01
 Iteration Nr.  14
 **********************
 DD1Dir will call FoFMem   1 times, MxPair=        72
 NAB=    36 NAA=     0 NBB=     0.
 A-vector RMS=  1.7285159D-09 Max=  1.0543958D-08 conv= 1.00D-08.
 RLE energy=       -0.6012434495
 DE(Corr)= -0.60124345     E(CORR)=     -188.31069776     Delta= 8.78D-10
 NORM(A)=   0.10794176D+01
 Iteration Nr.  15
 **********************
 DD1Dir will call FoFMem   1 times, MxPair=        72
 NAB=    36 NAA=     0 NBB=     0.
 A-vector RMS=  8.9234369D-10 Max=  6.4049225D-09 conv= 1.00D-08.
 RLE energy=       -0.6012434499
 DE(Corr)= -0.60124345     E(CORR)=     -188.31069776     Delta=-6.52D-10
 NORM(A)=   0.10794176D+01
 Iteration Nr.  16
 **********************
 DD1Dir will call FoFMem   1 times, MxPair=        72
 NAB=    36 NAA=     0 NBB=     0.
 A-vector RMS=  4.3573209D-10 Max=  3.1554558D-09 conv= 1.00D-08.
 RLE energy=       -0.6012434494
 DE(Corr)= -0.60124345     E(CORR)=     -188.31069776     Delta=-2.39D-10
 NORM(A)=   0.10794176D+01
 Iteration Nr.  17
 **********************
 DD1Dir will call FoFMem   1 times, MxPair=        72
 NAB=    36 NAA=     0 NBB=     0.
 A-vector RMS=  1.6354359D-10 Max=  1.2641238D-09 conv= 1.00D-08.
 RLE energy=       -0.6012434495
 DE(Corr)= -0.60124345     E(CORR)=     -188.31069776     Delta=-3.63D-10
 NORM(A)=   0.10794176D+01
 Iteration Nr.  18
 **********************
 DD1Dir will call FoFMem   1 times, MxPair=        72
 NAB=    36 NAA=     0 NBB=     0.
 A-vector RMS=  1.4932991D-10 Max=  1.1004890D-09 conv= 1.00D-08.
 RLE energy=       -0.6012434493
 DE(Corr)= -0.60124345     E(CORR)=     -188.31069776     Delta= 2.02D-10
 NORM(A)=   0.10794176D+01
 Iteration Nr.  19
 **********************
 DD1Dir will call FoFMem   1 times, MxPair=        72
 NAB=    36 NAA=     0 NBB=     0.
 A-vector RMS=  7.7422521D-11 Max=  5.5128936D-10 conv= 1.00D-08.
 RLE energy=       -0.6012434495
 DE(Corr)= -0.60124345     E(CORR)=     -188.31069776     Delta=-1.31D-10
 NORM(A)=   0.10794176D+01
 Iteration Nr.  20
 **********************
 DD1Dir will call FoFMem   1 times, MxPair=        72
 NAB=    36 NAA=     0 NBB=     0.
 A-vector RMS=  4.3447603D-11 Max=  3.3378573D-10 conv= 1.00D-08.
 RLE energy=       -0.6012434494
 DE(Corr)= -0.60124345     E(CORR)=     -188.31069776     Delta= 2.45D-11
 NORM(A)=   0.10794176D+01
 CI/CC converged in   20 iterations to DelEn= 2.45D-11 Conv= 1.00D-10 ErrA1= 4.34D-11 Conv= 1.00D-08
 Wavefunction amplitudes converged. E(Corr)=     -188.31069776    
 T1 Diagnostic =     0.01782520
 Largest amplitude= 4.52D-02
 IPart=  1 IA=    8   10.76% done.
 IPart=  1 IA=   15   20.91% done.
 IPart=  1 IA=   22   30.45% done.
 IPart=  1 IA=   30   40.59% done.
 IPart=  1 IA=   39   51.06% done.
 IPart=  1 IA=   48   60.50% done.
 IPart=  1 IA=   59   70.68% done.
 IPart=  1 IA=   71   80.05% done.
 IPart=  1 IA=   88   90.25% done.
 Time for triples=       32.50 seconds.
 T4(CCSD)= -0.31962247D-01
 T5(CCSD)=  0.22428521D-02
 CCSD(T)= -0.18834041716D+03
 Discarding MO integrals.
 Leave Link  913 at Mon Jan  5 18:10:34 2026, MaxMem= 12348030976 cpu:             107.1 elap:             107.8
 (Enter /uufs/chpc.utah.edu/sys/installdir/gaussian16/C01/AVX2/g16/l114.exe)

 NEF-NEF-NEF-NEF-NEF-NEF-NEF-NEF-NEF-NEF-NEF-NEF-NEF-NEF-NEF-NEF-NEF-NEF-
 NUMERICAL EIGENVECTOR FOLLOWING MINIMUM SEARCH
 NUMERICALLY ESTIMATING GRADIENTS
 ITERATION   0 VARIABLE  1 STEP  2

 NEF-NEF-NEF-NEF-NEF-NEF-NEF-NEF-NEF-NEF-NEF-NEF-NEF-NEF-NEF-NEF-NEF-NEF-
 Leave Link  114 at Mon Jan  5 18:10:34 2026, MaxMem= 12348030976 cpu:               0.0 elap:               0.1
 (Enter /uufs/chpc.utah.edu/sys/installdir/gaussian16/C01/AVX2/g16/l202.exe)
 ---------------------------------------------------------------------------------------------------
                            Z-MATRIX (ANGSTROMS AND DEGREES)
   CD    Cent   Atom    N1       Length/X        N2       Alpha/Y        N3        Beta/Z          J
 ---------------------------------------------------------------------------------------------------
      1      1  O 
      2      2  C        1   1.159757(     1)
      3         X        2   1.000000(     2)      1   90.000(     4)
      4      3  O        2   1.159757(     3)      3   90.000(     5)      1  180.000(     6)      0
 ---------------------------------------------------------------------------------------------------
                         Z-Matrix orientation:                         
 ---------------------------------------------------------------------
 Center     Atomic      Atomic             Coordinates (Angstroms)
 Number     Number       Type             X           Y           Z
 ---------------------------------------------------------------------
      1          8           0        0.000000    0.000000    0.000000
      2          6           0        0.000000    0.000000    1.159757
      3         -1           0        1.000000    0.000000    1.159757
      4          8           0        0.000000   -0.000000    2.319514
 ---------------------------------------------------------------------
                    Distance matrix (angstroms):
                    1          2          3          4
     1  O    0.000000
     2  C    1.159757   0.000000
     3  X    1.531351   1.000000   0.000000
     4  O    2.319514   1.159757   1.531351   0.000000
 Stoichiometry    CO2
 Framework group  D*H[O(C),C*(O.O)]
 Deg. of freedom     1
 Prev. full point group           D*H     NOp   8
 Prev. largest Abelian subgroup   D2H     NOp   8
       concise Abelian subgroup   C2      NOp   2
                   Standard orientation:
 ---------------------------------------------------------------------
 Center     Atomic                     Coordinates (Angstroms)
 Number     Number                        X           Y           Z
 ---------------------------------------------------------------------
      1          8                    0.000000    0.000000    1.159757
      2          6                    0.000000    0.000000    0.000000
      3          8                    0.000000    0.000000   -1.159757
 ---------------------------------------------------------------------
 Rotational constants (GHZ):           0.0000000          11.7454982          11.7454982
 Leave Link  202 at Mon Jan  5 18:10:34 2026, MaxMem= 12348030976 cpu:               0.0 elap:               0.0
 (Enter /uufs/chpc.utah.edu/sys/installdir/gaussian16/C01/AVX2/g16/l301.exe)
 Standard basis: Aug-CC-pVTZ (5D, 7F)
 Ernie: Thresh=  0.10000D-02 Tol=  0.10000D-17 Strict=F.
 Ernie:  6 primitive shells out of 90 were deleted.
 There are    38 symmetry adapted cartesian basis functions of AG  symmetry.
 There are     8 symmetry adapted cartesian basis functions of B1G symmetry.
 There are    16 symmetry adapted cartesian basis functions of B2G symmetry.
 There are    16 symmetry adapted cartesian basis functions of B3G symmetry.
 There are     7 symmetry adapted cartesian basis functions of AU  symmetry.
 There are    34 symmetry adapted cartesian basis functions of B1U symmetry.
 There are    23 symmetry adapted cartesian basis functions of B2U symmetry.
 There are    23 symmetry adapted cartesian basis functions of B3U symmetry.
 There are    30 symmetry adapted basis functions of AG  symmetry.
 There are     8 symmetry adapted basis functions of B1G symmetry.
 There are    14 symmetry adapted basis functions of B2G symmetry.
 There are    14 symmetry adapted basis functions of B3G symmetry.
 There are     7 symmetry adapted basis functions of AU  symmetry.
 There are    27 symmetry adapted basis functions of B1U symmetry.
 There are    19 symmetry adapted basis functions of B2U symmetry.
 There are    19 symmetry adapted basis functions of B3U symmetry.
   138 basis functions,   219 primitive gaussians,   165 cartesian basis functions
    11 alpha electrons       11 beta electrons
       nuclear repulsion energy        58.4042141415 Hartrees.
 IExCor=    0 DFT=F Ex=HF Corr=None ExCW=0 ScaHFX=  1.000000
 ScaDFX=  1.000000  1.000000  1.000000  1.000000 ScalE2=  1.000000  1.000000
 IRadAn=      5 IRanWt=     -1 IRanGd=            0 ICorTp=0 IEmpDi=  4
 NAtoms=    3 NActive=    3 NUniq=    2 SFac= 2.25D+00 NAtFMM=   60 NAOKFM=F Big=F
 Integral buffers will be    131072 words long.
 Raffenetti 1 integral format.
 Two-electron integral symmetry is turned on.
 Leave Link  301 at Mon Jan  5 18:10:35 2026, MaxMem= 12348030976 cpu:               0.1 elap:               0.1
 (Enter /uufs/chpc.utah.edu/sys/installdir/gaussian16/C01/AVX2/g16/l302.exe)
 NPDir=0 NMtPBC=     1 NCelOv=     1 NCel=       1 NClECP=     1 NCelD=      1
         NCelK=      1 NCelE2=     1 NClLst=     1 CellRange=     0.0.
 One-electron integrals computed using PRISM.
 One-electron integral symmetry used in STVInt
 NBasis=   138 RedAO= T EigKep=  3.51D-04  NBF=    30     8    14    14     7    27    19    19
 NBsUse=   138 1.00D-06 EigRej= -1.00D+00 NBFU=    30     8    14    14     7    27    19    19
 Leave Link  302 at Mon Jan  5 18:10:35 2026, MaxMem= 12348030976 cpu:               0.1 elap:               0.2
 (Enter /uufs/chpc.utah.edu/sys/installdir/gaussian16/C01/AVX2/g16/l303.exe)
 DipDrv:  MaxL=1.
 Leave Link  303 at Mon Jan  5 18:10:35 2026, MaxMem= 12348030976 cpu:               0.1 elap:               0.1
 (Enter /uufs/chpc.utah.edu/sys/installdir/gaussian16/C01/AVX2/g16/l401.exe)
 Initial guess from the checkpoint file:  "co2_ccsdt_opt.chk"
 B after Tr=     0.000000    0.000000    0.000000
         Rot=    1.000000    0.000000    0.000000    0.000000 Ang=   0.00 deg.
 Guess basis will be translated and rotated to current coordinates.
 JPrj=2 DoOrth=T DoCkMO=T.
 Initial guess orbital symmetries:
       Occupied  (SGU) (SGG) (SGG) (SGG) (SGU) (SGG) (SGU) (PIU)
                 (PIU) (PIG) (PIG)
       Virtual   (SGG) (PIU) (PIU) (SGU) (SGG) (PIG) (PIG) (PIU)
                 (PIU) (SGG) (SGU) (PIU) (PIU) (DLTG) (DLTG) (SGU)
                 (SGG) (PIU) (PIU) (PIG) (PIG) (SGG) (SGU) (DLTU)
                 (DLTU) (SGG) (DLTG) (DLTG) (PIG) (PIG) (SGU) (PIU)
                 (PIU) (SGG) (SGU) (PHIU) (PHIU) (DLTG) (DLTG)
                 (PIU) (PIU) (PIG) (PIG) (SGU) (DLTU) (DLTU) (SGU)
                 (PIG) (PIG) (SGG) (PIU) (PIU) (SGG) (PHIG) (PHIG)
                 (DLTU) (DLTU) (DLTG) (DLTG) (PHIU) (PHIU) (PIU)
                 (PIU) (SGG) (SGU) (SGG) (PIG) (PIG) (SGU) (DLTG)
                 (DLTG) (DLTU) (DLTU) (PIG) (PIG) (SGU) (PIU) (PIU)
                 (PIU) (PIU) (DLTG) (DLTG) (PHIU) (PHIU) (SGG)
                 (SGU) (PIG) (PIG) (DLTU) (DLTU) (PIU) (PIU) (SGG)
                 (PIG) (PIG) (SGG) (SGU) (PIU) (PIU) (SGU) (PHIG)
                 (PHIG) (PHIU) (PHIU) (DLTG) (DLTG) (DLTU) (DLTU)
                 (DLTG) (DLTG) (PIG) (PIG) (SGU) (DLTU) (DLTU)
                 (PIU) (PIU) (SGG) (SGG) (PIG) (PIG) (SGU) (PIU)
                 (PIU) (SGG) (SGG) (SGU)
 The electronic state of the initial guess is 1-SGG.
 Generating alternative initial guess.
 ExpMin= 3.57D-02 ExpMax= 1.53D+04 ExpMxC= 5.22D+02 IAcc=3 IRadAn=         5 AccDes= 0.00D+00
 Harris functional with IExCor=  205 and IRadAn=       5 diagonalized for initial guess.
 HarFok:  IExCor=  205 AccDes= 0.00D+00 IRadAn=         5 IDoV= 1 UseB2=F ITyADJ=14
 ICtDFT=  3500011 ScaDFX=  1.000000  1.000000  1.000000  1.000000
 FoFCou: FMM=F IPFlag=           0 FMFlag=      100000 FMFlg1=           0
         NFxFlg=           0 DoJE=T BraDBF=F KetDBF=T FulRan=T
         wScrn=  0.000000 ICntrl=       500 IOpCl=  0 I1Cent=   200000004 NGrid=           0
         NMat0=    1 NMatS0=      1 NMatT0=    0 NMatD0=    1 NMtDS0=    0 NMtDT0=    0
 Petite list used in FoFCou.
 Harris En= -187.739533018473    
 Leave Link  401 at Mon Jan  5 18:10:35 2026, MaxMem= 12348030976 cpu:               0.3 elap:               0.3
 (Enter /uufs/chpc.utah.edu/sys/installdir/gaussian16/C01/AVX2/g16/l502.exe)
 Keep R1 ints in memory in symmetry-blocked form, NReq=51901092.
 FoFCou: FMM=F IPFlag=           0 FMFlag=           0 FMFlg1=           0
         NFxFlg=           0 DoJE=F BraDBF=F KetDBF=F FulRan=T
         wScrn=  0.000000 ICntrl=       600 IOpCl=  0 I1Cent=           0 NGrid=           0
         NMat0=    1 NMatS0=   9591 NMatT0=    0 NMatD0=    1 NMtDS0=    0 NMtDT0=    0
 Petite list used in FoFCou.
 Closed shell SCF:
 Using DIIS extrapolation, IDIIS=  1040.
 NGot= 12348030976 LenX= 12342072257 LenY= 12342044591
 Requested convergence on RMS density matrix=1.00D-12 within 200 cycles.
 Requested convergence on MAX density matrix=1.00D-10.
 Requested convergence on             energy=1.00D-10.
 No special actions if energy rises.

 Cycle   1  Pass 1  IDiag  1:
 E= -187.709558881049    
 DIIS: error= 8.26D-05 at cycle   1 NSaved=   1.
 NSaved= 1 IEnMin= 1 EnMin= -187.709558881049     IErMin= 1 ErrMin= 8.26D-05
 ErrMax= 8.26D-05  0.00D+00 EMaxC= 1.00D-01 BMatC= 4.89D-07 BMatP= 4.89D-07
 IDIUse=1 WtCom= 1.00D+00 WtEn= 0.00D+00
 Coeff-Com:  0.100D+01
 Coeff:      0.100D+01
 Gap=     0.592 Goal=   None    Shift=    0.000
 RMSDP=4.67D-06 MaxDP=1.50D-04              OVMax= 1.48D-04

 Cycle   2  Pass 1  IDiag  1:
 E= -187.709559224582     Delta-E=       -0.000000343532 Rises=F Damp=F
 DIIS: error= 2.97D-05 at cycle   2 NSaved=   2.
 NSaved= 2 IEnMin= 2 EnMin= -187.709559224582     IErMin= 2 ErrMin= 2.97D-05
 ErrMax= 2.97D-05  0.00D+00 EMaxC= 1.00D-01 BMatC= 3.40D-08 BMatP= 4.89D-07
 IDIUse=1 WtCom= 1.00D+00 WtEn= 0.00D+00
 Coeff-Com:  0.936D-01 0.906D+00
 Coeff:      0.936D-01 0.906D+00
 Gap=     0.592 Goal=   None    Shift=    0.000
 RMSDP=8.30D-07 MaxDP=2.70D-05 DE=-3.44D-07 OVMax= 6.38D-05

 Cycle   3  Pass 1  IDiag  1:
 E= -187.709559254661     Delta-E=       -0.000000030080 Rises=F Damp=F
 DIIS: error= 9.96D-06 at cycle   3 NSaved=   3.
 NSaved= 3 IEnMin= 3 EnMin= -187.709559254661     IErMin= 3 ErrMin= 9.96D-06
 ErrMax= 9.96D-06  0.00D+00 EMaxC= 1.00D-01 BMatC= 2.60D-09 BMatP= 3.40D-08
 IDIUse=1 WtCom= 1.00D+00 WtEn= 0.00D+00
 Coeff-Com: -0.566D-01-0.617D-01 0.112D+01
 Coeff:     -0.566D-01-0.617D-01 0.112D+01
 Gap=     0.592 Goal=   None    Shift=    0.000
 RMSDP=3.39D-07 MaxDP=1.02D-05 DE=-3.01D-08 OVMax= 3.13D-05

 Cycle   4  Pass 1  IDiag  1:
 E= -187.709559259296     Delta-E=       -0.000000004635 Rises=F Damp=F
 DIIS: error= 3.02D-06 at cycle   4 NSaved=   4.
 NSaved= 4 IEnMin= 4 EnMin= -187.709559259296     IErMin= 4 ErrMin= 3.02D-06
[...]
 DE(Corr)= -0.60264555     E(CORR)=     -188.31015568     Delta=-3.32D-08
 NORM(A)=   0.10802204D+01
 Iteration Nr.   9
 **********************
 DD1Dir will call FoFMem   1 times, MxPair=        72
 NAB=    36 NAA=     0 NBB=     0.
 A-vector RMS=  4.7877889D-07 Max=  3.1120976D-06 conv= 1.00D-08.
 RLE energy=       -0.6026447077
 DE(Corr)= -0.60264479     E(CORR)=     -188.31015493     Delta= 7.51D-07
 NORM(A)=   0.10802204D+01
 Iteration Nr.  10
 **********************
 DD1Dir will call FoFMem   1 times, MxPair=        72
 NAB=    36 NAA=     0 NBB=     0.
 A-vector RMS=  1.0038016D-07 Max=  5.0001459D-07 conv= 1.00D-08.
 RLE energy=       -0.6026450748
 DE(Corr)= -0.60264511     E(CORR)=     -188.31015525     Delta=-3.19D-07
 NORM(A)=   0.10802206D+01
 Iteration Nr.  11
 **********************
 DD1Dir will call FoFMem   1 times, MxPair=        72
 NAB=    36 NAA=     0 NBB=     0.
 A-vector RMS=  5.7975671D-08 Max=  3.4735509D-07 conv= 1.00D-08.
 RLE energy=       -0.6026451970
 DE(Corr)= -0.60264516     E(CORR)=     -188.31015529     Delta=-4.68D-08
 NORM(A)=   0.10802207D+01
 Iteration Nr.  12
 **********************
 DD1Dir will call FoFMem   1 times, MxPair=        72
 NAB=    36 NAA=     0 NBB=     0.
 A-vector RMS=  1.7219742D-08 Max=  8.6797261D-08 conv= 1.00D-08.
 RLE energy=       -0.6026452310
 DE(Corr)= -0.60264522     E(CORR)=     -188.31015535     Delta=-5.55D-08
 NORM(A)=   0.10802208D+01
 Iteration Nr.  13
 **********************
 DD1Dir will call FoFMem   1 times, MxPair=        72
 NAB=    36 NAA=     0 NBB=     0.
 A-vector RMS=  8.1645610D-09 Max=  6.6119344D-08 conv= 1.00D-08.
 RLE energy=       -0.6026452357
 DE(Corr)= -0.60264523     E(CORR)=     -188.31015536     Delta=-1.60D-08
 NORM(A)=   0.10802208D+01
 Iteration Nr.  14
 **********************
 DD1Dir will call FoFMem   1 times, MxPair=        72
 NAB=    36 NAA=     0 NBB=     0.
 A-vector RMS=  3.7409023D-09 Max=  2.7386263D-08 conv= 1.00D-08.
 RLE energy=       -0.6026452399
 DE(Corr)= -0.60264524     E(CORR)=     -188.31015537     Delta=-7.74D-09
 NORM(A)=   0.10802208D+01
 Iteration Nr.  15
 **********************
 DD1Dir will call FoFMem   1 times, MxPair=        72
 NAB=    36 NAA=     0 NBB=     0.
 A-vector RMS=  1.3218614D-09 Max=  8.2152281D-09 conv= 1.00D-08.
 RLE energy=       -0.6026452400
 DE(Corr)= -0.60264524     E(CORR)=     -188.31015537     Delta= 1.12D-09
 NORM(A)=   0.10802208D+01
 Iteration Nr.  16
 **********************
 DD1Dir will call FoFMem   1 times, MxPair=        72
 NAB=    36 NAA=     0 NBB=     0.
 A-vector RMS=  9.2872368D-10 Max=  4.8361706D-09 conv= 1.00D-08.
 RLE energy=       -0.6026452388
 DE(Corr)= -0.60264524     E(CORR)=     -188.31015537     Delta=-4.59D-10
 NORM(A)=   0.10802208D+01
 Iteration Nr.  17
 **********************
 DD1Dir will call FoFMem   1 times, MxPair=        72
 NAB=    36 NAA=     0 NBB=     0.
 A-vector RMS=  3.8000762D-10 Max=  2.1411412D-09 conv= 1.00D-08.
 RLE energy=       -0.6026452389
 DE(Corr)= -0.60264524     E(CORR)=     -188.31015537     Delta=-3.98D-10
 NORM(A)=   0.10802208D+01
 Iteration Nr.  18
 **********************
 DD1Dir will call FoFMem   1 times, MxPair=        72
 NAB=    36 NAA=     0 NBB=     0.
 A-vector RMS=  1.6174647D-10 Max=  9.3525532D-10 conv= 1.00D-08.
 RLE energy=       -0.6026452390
 DE(Corr)= -0.60264524     E(CORR)=     -188.31015537     Delta= 2.45D-10
 NORM(A)=   0.10802208D+01
 Iteration Nr.  19
 **********************
 DD1Dir will call FoFMem   1 times, MxPair=        72
 NAB=    36 NAA=     0 NBB=     0.
 A-vector RMS=  9.0312104D-11 Max=  6.5675727D-10 conv= 1.00D-08.
 RLE energy=       -0.6026452390
 DE(Corr)= -0.60264524     E(CORR)=     -188.31015537     Delta= 3.63D-11
 NORM(A)=   0.10802208D+01
 CI/CC converged in   19 iterations to DelEn= 3.63D-11 Conv= 1.00D-10 ErrA1= 9.03D-11 Conv= 1.00D-08
 Wavefunction amplitudes converged. E(Corr)=     -188.31015537    
 T1 Diagnostic =     0.01818096
 Largest amplitude= 4.14D-02
 T4(AAA)= -0.88078849D-03
 T4(AAB)= -0.15338233D-01
 T5(AAA)=  0.80616591D-04
 T5(AAB)=  0.10844841D-02
 Time for triples=       63.32 seconds.
 T4(CCSD)= -0.32438043D-01
 T5(CCSD)=  0.23302014D-02
 CCSD(T)= -0.18834026321D+03
 Discarding MO integrals.
 Leave Link  913 at Mon Jan  5 19:13:15 2026, MaxMem= 12348030976 cpu:             114.1 elap:             115.6
 (Enter /uufs/chpc.utah.edu/sys/installdir/gaussian16/C01/AVX2/g16/l601.exe)
 Copying SCF densities to generalized density rwf, IOpCl= 0 IROHF=0.

 **********************************************************************

            Population analysis using the SCF Density.

 **********************************************************************

 Alpha  occ. eigenvalues --  -20.65764 -20.65175 -11.46487  -1.53023  -1.47382
 Alpha  occ. eigenvalues --   -0.80224  -0.74239  -0.71344  -0.71344  -0.54439
 Alpha  occ. eigenvalues --   -0.54439
 Alpha virt. eigenvalues --    0.04716   0.07293   0.07293   0.07886   0.16093
 Alpha virt. eigenvalues --    0.16377   0.16377   0.19673   0.19673   0.20638
 Alpha virt. eigenvalues --    0.22422   0.24684   0.24684   0.27869   0.27869
 Alpha virt. eigenvalues --    0.29674   0.43696   0.45248   0.45248   0.48312
 Alpha virt. eigenvalues --    0.48312   0.51320   0.60322   0.65467   0.65467
 Alpha virt. eigenvalues --    0.71050   0.78190   0.78190   0.78772   0.78772
 Alpha virt. eigenvalues --    0.87758   0.88112   0.88112   0.93571   1.03695
 Alpha virt. eigenvalues --    1.04109   1.04109   1.08542   1.08542   1.10690
 Alpha virt. eigenvalues --    1.10690   1.22825   1.22825   1.31258   1.34341
 Alpha virt. eigenvalues --    1.34341   1.35804   1.49538   1.49538   1.51187
 Alpha virt. eigenvalues --    1.62518   1.62518   1.79048   2.03098   2.03098
 Alpha virt. eigenvalues --    2.18921   2.18921   2.25100   2.25100   2.27735
 Alpha virt. eigenvalues --    2.27735   2.32598   2.32598   2.37246   2.39669
 Alpha virt. eigenvalues --    2.47178   2.48741   2.48741   2.59108   2.61272
 Alpha virt. eigenvalues --    2.61272   2.78176   2.78176   2.90584   2.90584
 Alpha virt. eigenvalues --    2.91731   2.96427   2.96427   3.03724   3.03724
 Alpha virt. eigenvalues --    3.34578   3.34578   3.35064   3.35064   3.80149
 Alpha virt. eigenvalues --    3.88430   3.94618   3.94618   3.99287   3.99287
 Alpha virt. eigenvalues --    4.14712   4.14712   4.50909   4.94356   4.94356
 Alpha virt. eigenvalues --    5.28523   5.50618   5.72418   5.72418   5.82400
 Alpha virt. eigenvalues --    6.43601   6.43601   6.54888   6.54888   6.67550
 Alpha virt. eigenvalues --    6.67550   6.89208   6.89208   7.06329   7.06329
 Alpha virt. eigenvalues --    7.11849   7.11849   7.15919   7.21501   7.21501
 Alpha virt. eigenvalues --    7.31294   7.31294   7.40335   7.49565   7.73321
 Alpha virt. eigenvalues --    7.73321   8.04257   8.10252   8.10252  13.94215
 Alpha virt. eigenvalues --   16.04762  21.16715
          Condensed to atoms (all electrons):
               1          2          3
     1  O    7.763469   0.597348  -0.133109
     2  C    0.597348   4.324821   0.585457
     3  O   -0.133109   0.585457   7.812318
 Mulliken charges:
               1
     1  O   -0.227708
     2  C    0.492374
     3  O   -0.264666
 Sum of Mulliken charges =  -0.00000
 Mulliken charges with hydrogens summed into heavy atoms:
               1
     1  O   -0.227708
     2  C    0.492374
     3  O   -0.264666
 Electronic spatial extent (au):  <R**2>=            114.7460
 Charge=             -0.0000 electrons
 Dipole moment (field-independent basis, Debye):
    X=             -0.0000    Y=             -0.0000    Z=              0.1457  Tot=              0.1457
 Quadrupole moment (field-independent basis, Debye-Ang):
   XX=            -14.8421   YY=            -14.8421   ZZ=            -19.9893
   XY=             -0.0000   XZ=              0.0000   YZ=              0.0000
 Traceless Quadrupole moment (field-independent basis, Debye-Ang):
   XX=              1.7157   YY=              1.7157   ZZ=             -3.4314
   XY=             -0.0000   XZ=              0.0000   YZ=              0.0000
 Octapole moment (field-independent basis, Debye-Ang**2):
  XXX=             -0.0000  YYY=             -0.0000  ZZZ=              0.7078  XYY=             -0.0000
  XXY=              0.0000  XXZ=              0.2125  XZZ=             -0.0000  YZZ=             -0.0000
  YYZ=              0.2125  XYZ=             -0.0000
 Hexadecapole moment (field-independent basis, Debye-Ang**3):
 XXXX=            -11.6953 YYYY=            -11.6953 ZZZZ=           -104.3206 XXXY=             -0.0000
 XXXZ=              0.0000 YYYX=             -0.0000 YYYZ=              0.0000 ZZZX=              0.0000
 ZZZY=              0.0000 XXYY=             -3.8984 XXZZ=            -19.2238 YYZZ=            -19.2238
 XXYZ=              0.0000 YYXZ=              0.0000 ZZXY=              0.0000
 N-N= 5.804682319142D+01 E-N=-5.591220804853D+02  KE= 1.872906311009D+02
 Leave Link  601 at Mon Jan  5 19:13:16 2026, MaxMem= 12348030976 cpu:               0.1 elap:               0.2
 (Enter /uufs/chpc.utah.edu/sys/installdir/gaussian16/C01/AVX2/g16/l110.exe)
 Numerical evaluation of force constants complete.
 Leave Link  110 at Mon Jan  5 19:13:16 2026, MaxMem= 12348030976 cpu:               0.1 elap:               0.3
 (Enter /uufs/chpc.utah.edu/sys/installdir/gaussian16/C01/AVX2/g16/l716.exe)
 Full mass-weighted force constant matrix:
 Low frequencies ---   -2.0008   -0.7026    1.0740    5.4308    5.5696  663.9933
 Low frequencies ---  664.0103 1341.0996 2373.4145
 Diagonal vibrational polarizability:
        0.0000000       0.0000000       0.0000000
 Harmonic frequencies (cm**-1), IR intensities (KM/Mole), Raman scattering
 activities (A**4/AMU), depolarization ratios for plane and unpolarized
 incident light, reduced masses (AMU), force constants (mDyne/A),
 and normal coordinates:
                      1                      2                      3
                     PIU                    PIU                    SGG
 Frequencies --    663.9933               664.0103              1341.0996
 Red. masses --     12.8774                12.8774                15.9949
 Frc consts  --      3.3451                 3.3452                16.9494
 IR Inten    --      0.0000                 0.0000                 0.0000
  Atom  AN      X      Y      Z        X      Y      Z        X      Y      Z
     1   8     0.00  -0.33  -0.00    -0.33  -0.00   0.00    -0.00   0.00   0.71
     2   6    -0.00   0.88  -0.00     0.88   0.00  -0.00    -0.00   0.00  -0.00
     3   8     0.00  -0.33   0.00    -0.33  -0.00  -0.00     0.00   0.00  -0.71
                      4
                     SGU
 Frequencies --   2373.4145
 Red. masses --     12.8774
 Frc consts  --     42.7390
 IR Inten    --      0.0000
  Atom  AN      X      Y      Z
     1   8    -0.00   0.00  -0.33
     2   6     0.00   0.00   0.88
     3   8     0.00   0.00  -0.33

 -------------------
 - Thermochemistry -
 -------------------
 Temperature   298.150 Kelvin.  Pressure   1.00000 Atm.
 Atom     1 has atomic number  8 and mass  15.99491
 Atom     2 has atomic number  6 and mass  12.00000
 Atom     3 has atomic number  8 and mass  15.99491
 Molecular mass:    43.98983 amu.
 Principal axes and moments of inertia in atomic units:
                           1         2         3
     Eigenvalues --     0.00000 155.56890 155.56890
           X           -0.00000   1.00000  -0.00000
           Y            0.00000   0.00000   1.00000
           Z            1.00000   0.00000  -0.00000
 This molecule is a prolate symmetric top.
 Rotational symmetry number  2.
 Rotational temperature (Kelvin)      0.55676
 Rotational constant (GHZ):          11.600912
 Zero-point vibrational energy      30161.0 (Joules/Mol)
                                    7.20864 (Kcal/Mol)
 Vibrational temperatures:    955.34   955.36  1929.54  3414.81
          (Kelvin)
 
 Zero-point correction=                           0.011488 (Hartree/Particle)
 Thermal correction to Energy=                    0.014114
 Thermal correction to Enthalpy=                  0.015058
 Thermal correction to Gibbs Free Energy=        -0.009218
 Sum of electronic and zero-point Energies=           -188.329108
 Sum of electronic and thermal Energies=              -188.326482
 Sum of electronic and thermal Enthalpies=            -188.325537
 Sum of electronic and thermal Free Energies=         -188.349813
 
                     E (Thermal)             CV                S
                      KCal/Mol        Cal/Mol-Kelvin    Cal/Mol-Kelvin
 Total                    8.856              6.899             51.093
 Electronic               0.000              0.000              0.000
 Translational            0.889              2.981             37.270
 Rotational               0.592              1.987             13.096
 Vibrational              7.375              1.931              0.727
                       Q            Log10(Q)             Ln(Q)
 Total Bot       0.173748D+05          4.239919          9.762773
 Total V=0       0.334110D+10          9.523889         21.929566
 Vib (Bot)       0.565844D-05         -5.247304        -12.082363
 Vib (V=0)       0.108810D+01          0.036667          0.084430
 Electronic      0.100000D+01          0.000000          0.000000
 Translational   0.114679D+08          7.059482         16.255059
 Rotational      0.267756D+03          2.427740          5.590078
 ***** Axes restored to original set *****
 -------------------------------------------------------------------
 Center     Atomic                   Forces (Hartrees/Bohr)
 Number     Number              X              Y              Z
 -------------------------------------------------------------------
      1        8          -0.000000000   -0.000000000   -0.000225209
      2        6          -0.000000000   -0.000000000   -0.000000000
      3        8          -0.000000000   -0.000000000    0.000225209
 -------------------------------------------------------------------
 Cartesian Forces:  Max     0.000225209 RMS     0.000106165
 -----------------------------------------------------------------------------------------------
                       Internal Coordinate Forces (Hartree/Bohr or radian)
  Cent   Atom   N1       Length/X         N2         Alpha/Y        N3         Beta/Z          J
 -----------------------------------------------------------------------------------------------
      1  O 
      2  C        1   0.000225(     1)
         X        2   0.000000(     2)      1   0.000000(     4)
      3  O        2   0.000225(     3)      3   0.000000(     5)      1   0.000000(     6)     0
 -----------------------------------------------------------------------------------------------
 Internal  Forces:  Max     0.000225209 RMS     0.000130025
 Force constants in Cartesian coordinates: 
                1             2             3             4             5 
      1  0.364093D-01
      2  0.000000D+00  0.364091D-01
      3  0.000000D+00  0.000000D+00  0.100941D+01
      4 -0.728035D-01  0.000000D+00  0.000000D+00  0.145608D+00
      5  0.000000D+00 -0.727996D-01  0.000000D+00  0.000000D+00  0.145599D+00
      6  0.000000D+00  0.000000D+00 -0.930143D+00  0.000000D+00  0.000000D+00
      7  0.363905D-01  0.000000D+00  0.000000D+00 -0.728035D-01  0.000000D+00
      8  0.000000D+00  0.363913D-01  0.000000D+00  0.000000D+00 -0.727996D-01
      9  0.000000D+00  0.000000D+00 -0.792627D-01  0.000000D+00  0.000000D+00
                6             7             8             9 
      6  0.186029D+01
      7  0.000000D+00  0.364093D-01
      8  0.000000D+00  0.000000D+00  0.364091D-01
      9 -0.930143D+00  0.000000D+00  0.000000D+00  0.100941D+01
 Force constants in internal coordinates: 
                1             2             3             4             5 
      1  0.100940D+01
      2  0.000000D+00  0.000000D+00
      3  0.792625D-01  0.000000D+00  0.100941D+01
      4  0.000000D+00  0.000000D+00  0.000000D+00  0.177558D+00
      5  0.000000D+00  0.000000D+00  0.000000D+00  0.177558D+00  0.177558D+00
      6  0.000000D+00  0.000000D+00  0.000000D+00  0.000000D+00  0.000000D+00
                6 
      6  0.177557D+00
 Leave Link  716 at Mon Jan  5 19:13:16 2026, MaxMem= 12348030976 cpu:               0.1 elap:               0.1
 (Enter /uufs/chpc.utah.edu/sys/installdir/gaussian16/C01/AVX2/g16/l103.exe)

 GradGradGradGradGradGradGradGradGradGradGradGradGradGradGradGradGradGrad
 Berny optimization.
 Search for a local minimum.
 Step number   1 out of a maximum of    2
 All quantities printed in internal units (Hartrees-Bohrs-Radians)
 Second derivative matrix not updated -- analytic derivatives used.
 The second derivative matrix:
                          RCO
           RCO          2.17734
 ITU=  0
     Eigenvalues ---    2.17734
 Angle between quadratic step and forces=   0.00 degrees.
 Linear search not attempted -- first point.
 Variable       Old X    -DE/DX   Delta X   Delta X   Delta X     New X
                                 (Linear)    (Quad)   (Total)
   RCO        2.20524   0.00045   0.00000   0.00021   0.00021   2.20544
         Item               Value     Threshold  Converged?
 Maximum Force            0.000450     0.000450     NO 
 RMS     Force            0.000450     0.000300     NO 
 Maximum Displacement     0.000207     0.001800     YES
 RMS     Displacement     0.000207     0.001200     YES
 Predicted change in Energy=-4.658842D-08
                       ----------------------------
                       ! Non-Optimized Parameters !
                       ! (Angstroms and Degrees)  !
 ----------------------                            ----------------------
 !      Name          Value   Derivative information (Atomic Units)     !
 ------------------------------------------------------------------------
 !       RCO         1.1671   -DE/DX =    0.0005                        !
 ------------------------------------------------------------------------
 GradGradGradGradGradGradGradGradGradGradGradGradGradGradGradGradGradGrad

 Leave Link  103 at Mon Jan  5 19:13:17 2026, MaxMem= 12348030976 cpu:               0.1 elap:               0.2
 (Enter /uufs/chpc.utah.edu/sys/installdir/gaussian16/C01/AVX2/g16/l9999.exe)
 Unable to Open any file for archive entry.
 1\1\GINC-NOTCH040\Freq\RCCSD(T)-FC\Aug-CC-pVTZ\C1O2\U0253283\05-Jan-20
 26\1\\#p CCSD(T,FC,T1Diag,Conver=10, MaxCyc=200)/aug-cc-pVTZ Freq Geom
 =AllCheck Guess=Read SCF=(Conver=12,MaxCycle=100) Integral=(Acc2E=18,B
 asisTransform=18)\\CO2: CCSD(T)/aug-cc-pVTZ linear opt. & freq. calc. 
 using CCSD(T)\\0,1\O\C,1,RCO\X,2,1.,1,90.\O,2,RCO,3,90.,1,180.,0\\RCO=
 1.1669616\\Version=ES64L-G16RevC.01\State=1-SGG\HF=-187.7078061\MP2=-1
 88.3215999\MP3=-188.3028069\MP4D=-188.31774\MP4DQ=-188.3034316\MP4SDQ=
 -188.3146545\CCSD=-188.31048\CCSD(T)=-188.3405954\RMSD=7.457e-13\RMSF=
 1.062e-04\ZeroPoint=0.0114877\Thermal=0.0141137\ETot=-188.3264816\HTot
 =-188.3255375\GTot=-188.3498132\PG=D*H [O(C1),C*(O1.O1)]\NImag=0\\0.03
 640931,0.,0.03640913,0.,0.,1.00940525,-0.07280354,0.,0.,0.14560780,0.,
 -0.07279959,0.,0.,0.14559949,0.,0.,-0.93014273,0.,0.,1.86028505,0.0363
 9054,0.,0.,-0.07280354,0.,0.,0.03640931,0.,0.03639127,0.,0.,-0.0727995
 9,0.,0.,0.03640913,0.,0.,-0.07926273,0.,0.,-0.93014273,0.,0.,1.0094052
 5\\0.,0.,0.00022521,0.,0.,0.,0.,0.,-0.00022521\\\@
 The archive entry for this job was punched.


 Some scientists claim that hydrogen, because it is so
 plentiful, is the basic building block of the universe. 
 I dispute that. I say that stupidity is far more
 abundant than hydrogen, and THAT is the basic building 
 block of the universe.
                   --Frank Zappa
 Job cpu time:       0 days  0 hours 33 minutes 51.5 seconds.
 Elapsed time:       0 days  0 hours 34 minutes 24.9 seconds.
 File lengths (MBytes):  RWF=    911 Int=      0 D2E=      0 Chk=     41 Scr=      2
 Normal termination of Gaussian 16 at Mon Jan  5 19:13:17 2026.
