 Entering Gaussian System, Link 0=g16
 Input=h2o_ccsdt_sp.com
 Output=h2o_ccsdt_sp.log
 Initial command:
 /uufs/chpc.utah.edu/sys/installdir/gaussian16/C01/AVX2/g16/l1.exe "/scratch/general/vast/u0253283/9381871/notchpeak.peaks/Gau-123894.inp" -scrdir="/scratch/general/vast/u0253283/9381871/notchpeak.peaks/"
 Entering Link 1 = /uufs/chpc.utah.edu/sys/installdir/gaussian16/C01/AVX2/g16/l1.exe PID=    123895.
  
 Copyright (c) 1988-2019, Gaussian, Inc.  All Rights Reserved.
  
 This is part of the Gaussian(R) 16 program.  It is based on
 the Gaussian(R) 09 system (copyright 2009, Gaussian, Inc.),
 the Gaussian(R) 03 system (copyright 2003, Gaussian, Inc.),
 the Gaussian(R) 98 system (copyright 1998, Gaussian, Inc.),
 the Gaussian(R) 94 system (copyright 1995, Gaussian, Inc.),
 the Gaussian 92(TM) system (copyright 1992, Gaussian, Inc.),
 the Gaussian 90(TM) system (copyright 1990, Gaussian, Inc.),
 the Gaussian 88(TM) system (copyright 1988, Gaussian, Inc.),
 the Gaussian 86(TM) system (copyright 1986, Carnegie Mellon
 University), and the Gaussian 82(TM) system (copyright 1983,
 Carnegie Mellon University). Gaussian is a federally registered
 trademark of Gaussian, Inc.
  
 This software contains proprietary and confidential information,
 including trade secrets, belonging to Gaussian, Inc.
  
 This software is provided under written license and may be
 used, copied, transmitted, or stored only in accord with that
 written license.
  
 The following legend is applicable only to US Government
 contracts under FAR:
  
                    RESTRICTED RIGHTS LEGEND
  
 Use, reproduction and disclosure by the US Government is
 subject to restrictions as set forth in subparagraphs (a)
 and (c) of the Commercial Computer Software - Restricted
 Rights clause in FAR 52.227-19.
  
 Gaussian, Inc.
 340 Quinnipiac St., Bldg. 40, Wallingford CT 06492
  
  
 ---------------------------------------------------------------
 Warning -- This program may not be used in any manner that
 competes with the business of Gaussian, Inc. or will provide
 assistance to any competitor of Gaussian, Inc.  The licensee
 of this program is prohibited from giving any competitor of
 Gaussian, Inc. access to this program.  By using this program,
 the user acknowledges that Gaussian, Inc. is engaged in the
 business of creating and licensing software in the field of
 computational chemistry and represents and warrants to the
 licensee that it is not a competitor of Gaussian, Inc. and that
 it will not use this program in any manner prohibited above.
 ---------------------------------------------------------------
  

 Cite this work as:
 Gaussian 16, Revision C.01,
 M. J. Frisch, G. W. Trucks, H. B. Schlegel, G. E. Scuseria, 
 M. A. Robb, J. R. Cheeseman, G. Scalmani, V. Barone, 
 G. A. Petersson, H. Nakatsuji, X. Li, M. Caricato, A. V. Marenich, 
 J. Bloino, B. G. Janesko, R. Gomperts, B. Mennucci, H. P. Hratchian, 
 J. V. Ortiz, A. F. Izmaylov, J. L. Sonnenberg, D. Williams-Young, 
 F. Ding, F. Lipparini, F. Egidi, J. Goings, B. Peng, A. Petrone, 
 T. Henderson, D. Ranasinghe, V. G. Zakrzewski, J. Gao, N. Rega, 
 G. Zheng, W. Liang, M. Hada, M. Ehara, K. Toyota, R. Fukuda, 
 J. Hasegawa, M. Ishida, T. Nakajima, Y. Honda, O. Kitao, H. Nakai, 
 T. Vreven, K. Throssell, J. A. Montgomery, Jr., J. E. Peralta, 
 F. Ogliaro, M. J. Bearpark, J. J. Heyd, E. N. Brothers, K. N. Kudin, 
 V. N. Staroverov, T. A. Keith, R. Kobayashi, J. Normand, 
 K. Raghavachari, A. P. Rendell, J. C. Burant, S. S. Iyengar, 
 J. Tomasi, M. Cossi, J. M. Millam, M. Klene, C. Adamo, R. Cammi, 
 J. W. Ochterski, R. L. Martin, K. Morokuma, O. Farkas, 
 J. B. Foresman, and D. J. Fox, Gaussian, Inc., Wallingford CT, 2019.
 
 ******************************************
 Gaussian 16:  ES64L-G16RevC.01  3-Jul-2019
                18-Dec-2025 
 ******************************************
 %chk=h2o_ccsdt_sp.chk
 %mem=90GB
 ----------------------------------------------------------------------
 #P CCSD(T,FC,T1Diag,Conver=10, MaxCyc=200)/aug-cc-pVQZ Freq SCF=(Conve
 r=12,MaxCycle=200) Integral=(Acc2E=18,BasisTransform=18)
 ----------------------------------------------------------------------

 Warning:  this job cannot use analytic gradients
           and so will do many energy evaluations.

 1/10=4,30=1,38=21/1,10,3;
 2/12=2,17=6,18=5,40=1/2;
 3/5=16,6=2,7=10,11=9,25=1,27=18,30=1,60=18/1,2,3;
 4/69=2/1;
 5/5=2,6=12,7=200,38=5,87=18,98=1/2;
 8/6=4,9=120000,10=1,87=18/1,4;
 9/5=7,6=200,9=10,14=2,36=1,87=18/13;
 6/7=2,8=2,9=2,10=2,87=18/1;
 1/38=20/10(3);
 7/8=1,25=1,44=-1,87=18/16;
 1/10=4,30=1,38=20/3;
 99//99;
 3/5=16,6=2,7=10,11=9,25=1,27=18,30=1,60=18/1,2,3;
 4/5=5,16=3,69=2/1;
 5/5=2,6=12,7=200,38=5,87=18,98=1/2;
 8/6=4,9=120000,10=1,87=18/1,4;
 9/5=7,6=200,9=10,14=2,36=1,87=18/13;
 6/7=2,8=2,9=2,10=2,87=18/1;
 1/38=20/10(-6);
 7/8=1,25=1,44=-1,87=18/16;
 1/10=4,30=1,38=20/3;
 99//99;
 Leave Link    1 at Thu Dec 18 16:32:44 2025, MaxMem= 12079595520 cpu:               0.0 elap:               0.1
 (Enter /uufs/chpc.utah.edu/sys/installdir/gaussian16/C01/AVX2/g16/l101.exe)
 -------------------------------------------------
 Water molecule H2O CCSD(T)/aug-cc-pVQZ SP & Freq.
 -------------------------------------------------
 Symbolic Z-matrix:
 Charge =  0 Multiplicity = 1
 O                     0.        0.        0. 
 H                     0.        0.757     0.587 
 H                     0.       -0.757     0.587 
 
 ITRead=  0  0  0
 MicOpt= -1 -1 -1
 NAtoms=      3 NQM=        3 NQMF=       0 NMMI=      0 NMMIF=      0
                NMic=       0 NMicF=      0.
                    Isotopes and Nuclear Properties:
 (Nuclear quadrupole moments (NQMom) in fm**2, nuclear magnetic moments (NMagM)
  in nuclear magnetons)

  Atom         1           2           3
 IAtWgt=          16           1           1
 AtmWgt=  15.9949146   1.0078250   1.0078250
 NucSpn=           0           1           1
 AtZEff=  -0.0000000  -0.0000000  -0.0000000
 NQMom=    0.0000000   0.0000000   0.0000000
 NMagM=    0.0000000   2.7928460   2.7928460
 AtZNuc=   8.0000000   1.0000000   1.0000000
 Leave Link  101 at Thu Dec 18 16:32:44 2025, MaxMem= 12079595520 cpu:               0.1 elap:               0.2
 (Enter /uufs/chpc.utah.edu/sys/installdir/gaussian16/C01/AVX2/g16/l110.exe)
 Numerical differentiation of energy to produce force constants.
 Step-Size= 0.010000 angstroms, NStep=1.
 Leave EnFreq:  IXYZ= 0 JXYZ= 0 IStep= 0.
 Leave Link  110 at Thu Dec 18 16:32:45 2025, MaxMem= 12079595520 cpu:               0.0 elap:               0.0
 (Enter /uufs/chpc.utah.edu/sys/installdir/gaussian16/C01/AVX2/g16/l103.exe)

 GradGradGradGradGradGradGradGradGradGradGradGradGradGradGradGradGradGrad
 Berny optimization.
 Initialization pass.
 Trust Radius=3.00D-01 FncErr=1.00D-07 GrdErr=1.00D-07 EigMax=2.50D+02 EigMin=1.00D-04
 Number of steps in this run=      2 maximum allowed number of steps=      2.
 GradGradGradGradGradGradGradGradGradGradGradGradGradGradGradGradGradGrad

 Leave Link  103 at Thu Dec 18 16:32:45 2025, MaxMem= 12079595520 cpu:               0.0 elap:               0.1
 (Enter /uufs/chpc.utah.edu/sys/installdir/gaussian16/C01/AVX2/g16/l202.exe)
                          Input orientation:                          
 ---------------------------------------------------------------------
 Center     Atomic      Atomic             Coordinates (Angstroms)
 Number     Number       Type             X           Y           Z
 ---------------------------------------------------------------------
      1          8           0        0.000000    0.000000    0.000000
      2          1           0        0.000000    0.757000    0.587000
      3          1           0        0.000000   -0.757000    0.587000
 ---------------------------------------------------------------------
                    Distance matrix (angstroms):
                    1          2          3
     1  O    0.000000
     2  H    0.957924   0.000000
     3  H    0.957924   1.514000   0.000000
 Stoichiometry    H2O
 Framework group  C2V[C2(O),SGV(H2)]
 Deg. of freedom     2
 Full point group                 C2V     NOp   4
 Largest Abelian subgroup         C2V     NOp   4
 Largest concise Abelian subgroup C2      NOp   2
                         Standard orientation:                         
 ---------------------------------------------------------------------
 Center     Atomic      Atomic             Coordinates (Angstroms)
 Number     Number       Type             X           Y           Z
 ---------------------------------------------------------------------
      1          8           0       -0.000000    0.000000    0.117400
      2          1           0        0.000000    0.757000   -0.469600
      3          1           0       -0.000000   -0.757000   -0.469600
 ---------------------------------------------------------------------
 Rotational constants (GHZ):         819.3534029         437.5324837         285.2237687
 Leave Link  202 at Thu Dec 18 16:32:45 2025, MaxMem= 12079595520 cpu:               0.0 elap:               0.0
 (Enter /uufs/chpc.utah.edu/sys/installdir/gaussian16/C01/AVX2/g16/l301.exe)
 Standard basis: Aug-CC-pVQZ (5D, 7F)
 Ernie: Thresh=  0.10000D-02 Tol=  0.10000D-17 Strict=F.
 Ernie:  1 primitive shells out of 70 were deleted.
 There are    81 symmetry adapted cartesian basis functions of A1  symmetry.
 There are    31 symmetry adapted cartesian basis functions of A2  symmetry.
 There are    42 symmetry adapted cartesian basis functions of B1  symmetry.
 There are    61 symmetry adapted cartesian basis functions of B2  symmetry.
 There are    61 symmetry adapted basis functions of A1  symmetry.
 There are    27 symmetry adapted basis functions of A2  symmetry.
 There are    35 symmetry adapted basis functions of B1  symmetry.
 There are    49 symmetry adapted basis functions of B2  symmetry.
   172 basis functions,   240 primitive gaussians,   215 cartesian basis functions
     5 alpha electrons        5 beta electrons
       nuclear repulsion energy         9.1882584177 Hartrees.
 IExCor=    0 DFT=F Ex=HF Corr=None ExCW=0 ScaHFX=  1.000000
 ScaDFX=  1.000000  1.000000  1.000000  1.000000 ScalE2=  1.000000  1.000000
 IRadAn=      5 IRanWt=     -1 IRanGd=            0 ICorTp=0 IEmpDi=  4
 NAtoms=    3 NActive=    3 NUniq=    2 SFac= 2.25D+00 NAtFMM=   60 NAOKFM=F Big=F
 Integral buffers will be    131072 words long.
 Raffenetti 1 integral format.
 Two-electron integral symmetry is turned on.
 Leave Link  301 at Thu Dec 18 16:32:46 2025, MaxMem= 12079595520 cpu:               0.0 elap:               0.1
 (Enter /uufs/chpc.utah.edu/sys/installdir/gaussian16/C01/AVX2/g16/l302.exe)
 NPDir=0 NMtPBC=     1 NCelOv=     1 NCel=       1 NClECP=     1 NCelD=      1
         NCelK=      1 NCelE2=     1 NClLst=     1 CellRange=     0.0.
 One-electron integrals computed using PRISM.
 One-electron integral symmetry used in STVInt
 NBasis=   172 RedAO= T EigKep=  8.66D-05  NBF=    61    27    35    49
 NBsUse=   172 1.00D-06 EigRej= -1.00D+00 NBFU=    61    27    35    49
 Leave Link  302 at Thu Dec 18 16:32:46 2025, MaxMem= 12079595520 cpu:               0.1 elap:               0.2
 (Enter /uufs/chpc.utah.edu/sys/installdir/gaussian16/C01/AVX2/g16/l303.exe)
 DipDrv:  MaxL=1.
 Leave Link  303 at Thu Dec 18 16:32:47 2025, MaxMem= 12079595520 cpu:               0.0 elap:               0.1
 (Enter /uufs/chpc.utah.edu/sys/installdir/gaussian16/C01/AVX2/g16/l401.exe)
 ExpMin= 2.36D-02 ExpMax= 6.14D+04 ExpMxC= 5.91D+02 IAcc=3 IRadAn=         5 AccDes= 0.00D+00
 Harris functional with IExCor=  205 and IRadAn=       5 diagonalized for initial guess.
 HarFok:  IExCor=  205 AccDes= 0.00D+00 IRadAn=         5 IDoV= 1 UseB2=F ITyADJ=14
 ICtDFT=  3500011 ScaDFX=  1.000000  1.000000  1.000000  1.000000
 FoFCou: FMM=F IPFlag=           0 FMFlag=      100000 FMFlg1=           0
         NFxFlg=           0 DoJE=T BraDBF=F KetDBF=T FulRan=T
         wScrn=  0.000000 ICntrl=       500 IOpCl=  0 I1Cent=   200000004 NGrid=           0
         NMat0=    1 NMatS0=      1 NMatT0=    0 NMatD0=    1 NMtDS0=    0 NMtDT0=    0
 Petite list used in FoFCou.
 Harris En= -76.1600064883783    
 JPrj=0 DoOrth=F DoCkMO=F.
 Initial guess orbital symmetries:
       Occupied  (A1) (A1) (B2) (A1) (B1)
       Virtual   (A1) (B2) (A1) (B1) (A1) (B2) (B2) (A1) (A2) (B1)
                 (A1) (A1) (B2) (B2) (B2) (A1) (A1) (B1) (A2) (A1)
                 (B1) (B1) (B2) (A1) (A2) (A1) (B2) (A1) (B2) (B1)
                 (B2) (A1) (A2) (B2) (A1) (A2) (B1) (A1) (A1) (B2)
                 (B1) (B2) (A1) (A2) (B1) (B2) (A1) (B1) (A1) (A1)
                 (B2) (A2) (B1) (B2) (A1) (A1) (B2) (B2) (A2) (B1)
                 (B2) (A1) (A2) (B1) (A2) (A1) (B2) (A1) (B1) (B2)
                 (A2) (A1) (B1) (A1) (B2) (B2) (B1) (A1) (A2) (B2)
                 (A1) (A2) (A1) (B2) (B1) (B2) (A1) (B1) (A1) (A2)
                 (B2) (B1) (A1) (A1) (B2) (A1) (B1) (B1) (A2) (B2)
                 (A2) (A1) (A1) (B2) (B1) (A1) (B2) (A2) (B2) (A1)
                 (B1) (A2) (B2) (A1) (B2) (B1) (A2) (A2) (B2) (A1)
                 (B2) (A1) (A1) (B1) (B2) (A1) (A2) (B1) (A1) (B1)
                 (A2) (B2) (A1) (B2) (A1) (B2) (B1) (A2) (B2) (A1)
                 (A1) (B1) (A1) (B2) (B1) (A2) (A1) (A2) (B2) (B1)
                 (A1) (B1) (B2) (A1) (A1) (B1) (A2) (B2) (A1) (B2)
                 (B1) (A2) (A1) (B2) (A1) (B2) (A1)
 The electronic state of the initial guess is 1-A1.
 Leave Link  401 at Thu Dec 18 16:32:47 2025, MaxMem= 12079595520 cpu:               0.2 elap:               0.3
 (Enter /uufs/chpc.utah.edu/sys/installdir/gaussian16/C01/AVX2/g16/l502.exe)
 Keep R1 ints in memory in symmetry-blocked form, NReq=138601264.
 FoFCou: FMM=F IPFlag=           0 FMFlag=           0 FMFlg1=           0
         NFxFlg=           0 DoJE=F BraDBF=F KetDBF=F FulRan=T
         wScrn=  0.000000 ICntrl=       600 IOpCl=  0 I1Cent=           0 NGrid=           0
         NMat0=    1 NMatS0=  14878 NMatT0=    0 NMatD0=    1 NMtDS0=    0 NMtDT0=    0
 Petite list used in FoFCou.
 Closed shell SCF:
 Using DIIS extrapolation, IDIIS=  1040.
 NGot= 12079595520 LenX= 12051584624 LenY= 12051537958
 Requested convergence on RMS density matrix=1.00D-12 within 200 cycles.
 Requested convergence on MAX density matrix=1.00D-10.
 Requested convergence on             energy=1.00D-10.
 No special actions if energy rises.

 Cycle   1  Pass 1  IDiag  1:
 E= -75.9748078367084    
 DIIS: error= 4.74D-02 at cycle   1 NSaved=   1.
 NSaved= 1 IEnMin= 1 EnMin= -75.9748078367084     IErMin= 1 ErrMin= 4.74D-02
 ErrMax= 4.74D-02  0.00D+00 EMaxC= 1.00D-01 BMatC= 2.26D-01 BMatP= 2.26D-01
 IDIUse=3 WtCom= 5.26D-01 WtEn= 4.74D-01
 Coeff-Com:  0.100D+01
 Coeff-En:   0.100D+01
 Coeff:      0.100D+01
 Gap=     0.451 Goal=   None    Shift=    0.000
 GapD=    0.451 DampG=2.000 DampE=0.500 DampFc=1.0000 IDamp=-1.
 RMSDP=1.22D-03 MaxDP=5.68D-02              OVMax= 1.24D-01

 Cycle   2  Pass 1  IDiag  1:
 E= -76.0282225406548     Delta-E=       -0.053414703946 Rises=F Damp=F
 DIIS: error= 2.96D-02 at cycle   2 NSaved=   2.
 NSaved= 2 IEnMin= 2 EnMin= -76.0282225406548     IErMin= 2 ErrMin= 2.96D-02
 ErrMax= 2.96D-02  0.00D+00 EMaxC= 1.00D-01 BMatC= 6.12D-02 BMatP= 2.26D-01
 IDIUse=3 WtCom= 7.04D-01 WtEn= 2.96D-01
 Coeff-Com:  0.311D+00 0.689D+00
 Coeff-En:   0.202D+00 0.798D+00
 Coeff:      0.279D+00 0.721D+00
 Gap=     0.564 Goal=   None    Shift=    0.000
 RMSDP=6.23D-04 MaxDP=3.10D-02 DE=-5.34D-02 OVMax= 6.57D-02

 Cycle   3  Pass 1  IDiag  1:
 E= -76.0641455647940     Delta-E=       -0.035923024139 Rises=F Damp=F
 DIIS: error= 6.55D-03 at cycle   3 NSaved=   3.
 NSaved= 3 IEnMin= 3 EnMin= -76.0641455647940     IErMin= 3 ErrMin= 6.55D-03
 ErrMax= 6.55D-03  0.00D+00 EMaxC= 1.00D-01 BMatC= 2.86D-03 BMatP= 6.12D-02
 IDIUse=3 WtCom= 9.35D-01 WtEn= 6.55D-02
 Coeff-Com: -0.294D-01 0.147D+00 0.882D+00
 Coeff-En:   0.000D+00 0.000D+00 0.100D+01
 Coeff:     -0.274D-01 0.137D+00 0.890D+00
 Gap=     0.535 Goal=   None    Shift=    0.000
 RMSDP=1.14D-04 MaxDP=5.37D-03 DE=-3.59D-02 OVMax= 1.25D-02

 Cycle   4  Pass 1  IDiag  1:
 E= -76.0659182034377     Delta-E=       -0.001772638644 Rises=F Damp=F
 DIIS: error= 4.85D-04 at cycle   4 NSaved=   4.
 NSaved= 4 IEnMin= 4 EnMin= -76.0659182034377     IErMin= 4 ErrMin= 4.85D-04
 ErrMax= 4.85D-04  0.00D+00 EMaxC= 1.00D-01 BMatC= 1.25D-05 BMatP= 2.86D-03
 IDIUse=3 WtCom= 9.95D-01 WtEn= 4.85D-03
 Coeff-Com:  0.652D-02-0.516D-01-0.242D+00 0.129D+01
 Coeff-En:   0.000D+00 0.000D+00 0.000D+00 0.100D+01
 Coeff:      0.649D-02-0.514D-01-0.241D+00 0.129D+01
 Gap=     0.537 Goal=   None    Shift=    0.000
 RMSDP=1.88D-05 MaxDP=7.98D-04 DE=-1.77D-03 OVMax= 2.25D-03

 Cycle   5  Pass 1  IDiag  1:
 E= -76.0659410195488     Delta-E=       -0.000022816111 Rises=F Damp=F
 DIIS: error= 1.42D-04 at cycle   5 NSaved=   5.
 NSaved= 5 IEnMin= 5 EnMin= -76.0659410195488     IErMin= 5 ErrMin= 1.42D-04
 ErrMax= 1.42D-04  0.00D+00 EMaxC= 1.00D-01 BMatC= 6.61D-07 BMatP= 1.25D-05
 IDIUse=3 WtCom= 9.99D-01 WtEn= 1.42D-03
 Coeff-Com:  0.179D-03 0.181D-02 0.740D-02-0.272D+00 0.126D+01
 Coeff-En:   0.000D+00 0.000D+00 0.000D+00 0.000D+00 0.100D+01
 Coeff:      0.179D-03 0.181D-02 0.739D-02-0.271D+00 0.126D+01
 Gap=     0.537 Goal=   None    Shift=    0.000
 RMSDP=5.41D-06 MaxDP=2.46D-04 DE=-2.28D-05 OVMax= 6.94D-04

 Cycle   6  Pass 1  IDiag  1:
 E= -76.0659426903602     Delta-E=       -0.000001670811 Rises=F Damp=F
 DIIS: error= 2.42D-05 at cycle   6 NSaved=   6.
 NSaved= 6 IEnMin= 6 EnMin= -76.0659426903602     IErMin= 6 ErrMin= 2.42D-05
 ErrMax= 2.42D-05  0.00D+00 EMaxC= 1.00D-01 BMatC= 2.17D-08 BMatP= 6.61D-07
 IDIUse=1 WtCom= 1.00D+00 WtEn= 0.00D+00
 Coeff-Com: -0.234D-03 0.127D-02 0.516D-02 0.151D-01-0.313D+00 0.129D+01
 Coeff:     -0.234D-03 0.127D-02 0.516D-02 0.151D-01-0.313D+00 0.129D+01
 Gap=     0.537 Goal=   None    Shift=    0.000
 RMSDP=1.14D-06 MaxDP=3.76D-05 DE=-1.67D-06 OVMax= 1.52D-04

 Cycle   7  Pass 1  IDiag  1:
 E= -76.0659427551897     Delta-E=       -0.000000064830 Rises=F Damp=F
 DIIS: error= 4.25D-06 at cycle   7 NSaved=   7.
 NSaved= 7 IEnMin= 7 EnMin= -76.0659427551897     IErMin= 7 ErrMin= 4.25D-06
 ErrMax= 4.25D-06  0.00D+00 EMaxC= 1.00D-01 BMatC= 9.58D-10 BMatP= 2.17D-08
 IDIUse=1 WtCom= 1.00D+00 WtEn= 0.00D+00
 Coeff-Com:  0.375D-04-0.354D-03-0.160D-02 0.150D-01-0.153D-01-0.196D+00
 Coeff-Com:  0.120D+01
 Coeff:      0.375D-04-0.354D-03-0.160D-02 0.150D-01-0.153D-01-0.196D+00
 Coeff:      0.120D+01
 Gap=     0.537 Goal=   None    Shift=    0.000
 RMSDP=1.75D-07 MaxDP=7.19D-06 DE=-6.48D-08 OVMax= 2.67D-05

 Cycle   8  Pass 1  IDiag  1:
 E= -76.0659427572442     Delta-E=       -0.000000002054 Rises=F Damp=F
 DIIS: error= 9.86D-07 at cycle   8 NSaved=   8.
 NSaved= 8 IEnMin= 8 EnMin= -76.0659427572442     IErMin= 8 ErrMin= 9.86D-07
 ErrMax= 9.86D-07  0.00D+00 EMaxC= 1.00D-01 BMatC= 4.83D-11 BMatP= 9.58D-10
 IDIUse=1 WtCom= 1.00D+00 WtEn= 0.00D+00
 Coeff-Com:  0.443D-05 0.412D-05 0.911D-04-0.407D-02 0.181D-01-0.200D-01
 Coeff-Com: -0.278D+00 0.128D+01
 Coeff:      0.443D-05 0.412D-05 0.911D-04-0.407D-02 0.181D-01-0.200D-01
 Coeff:     -0.278D+00 0.128D+01
 Gap=     0.537 Goal=   None    Shift=    0.000
 RMSDP=4.68D-08 MaxDP=1.47D-06 DE=-2.05D-09 OVMax= 6.37D-06

 Cycle   9  Pass 1  IDiag  1:
 E= -76.0659427573643     Delta-E=       -0.000000000120 Rises=F Damp=F
 DIIS: error= 1.70D-07 at cycle   9 NSaved=   9.
 NSaved= 9 IEnMin= 9 EnMin= -76.0659427573643     IErMin= 9 ErrMin= 1.70D-07
 ErrMax= 1.70D-07  0.00D+00 EMaxC= 1.00D-01 BMatC= 1.04D-12 BMatP= 4.83D-11
 IDIUse=1 WtCom= 1.00D+00 WtEn= 0.00D+00
 Coeff-Com: -0.151D-05 0.576D-05 0.754D-05 0.477D-03-0.265D-02 0.665D-02
 Coeff-Com:  0.324D-01-0.292D+00 0.125D+01
 Coeff:     -0.151D-05 0.576D-05 0.754D-05 0.477D-03-0.265D-02 0.665D-02
 Coeff:      0.324D-01-0.292D+00 0.125D+01
 Gap=     0.537 Goal=   None    Shift=    0.000
 RMSDP=9.25D-09 MaxDP=3.85D-07 DE=-1.20D-10 OVMax= 9.74D-07

 Cycle  10  Pass 1  IDiag  1:
 E= -76.0659427573667     Delta-E=       -0.000000000002 Rises=F Damp=F
 DIIS: error= 3.85D-08 at cycle  10 NSaved=  10.
 NSaved=10 IEnMin=10 EnMin= -76.0659427573667     IErMin=10 ErrMin= 3.85D-08
 ErrMax= 3.85D-08  0.00D+00 EMaxC= 1.00D-01 BMatC= 3.62D-14 BMatP= 1.04D-12
 IDIUse=1 WtCom= 1.00D+00 WtEn= 0.00D+00
 Coeff-Com:  0.494D-06-0.222D-05-0.396D-05-0.111D-03 0.721D-03-0.254D-02
 Coeff-Com: -0.394D-02 0.787D-01-0.497D+00 0.142D+01
 Coeff:      0.494D-06-0.222D-05-0.396D-05-0.111D-03 0.721D-03-0.254D-02
 Coeff:     -0.394D-02 0.787D-01-0.497D+00 0.142D+01
 Gap=     0.537 Goal=   None    Shift=    0.000
 RMSDP=1.76D-09 MaxDP=4.40D-08 DE=-2.36D-12 OVMax= 1.98D-07

 Cycle  11  Pass 1  IDiag  1:
 E= -76.0659427573668     Delta-E=       -0.000000000000 Rises=F Damp=F
 DIIS: error= 4.45D-09 at cycle  11 NSaved=  11.
 NSaved=11 IEnMin=11 EnMin= -76.0659427573668     IErMin=11 ErrMin= 4.45D-09
 ErrMax= 4.45D-09  0.00D+00 EMaxC= 1.00D-01 BMatC= 7.83D-16 BMatP= 3.62D-14
 IDIUse=1 WtCom= 1.00D+00 WtEn= 0.00D+00
 Coeff-Com: -0.880D-07 0.321D-06 0.306D-06 0.225D-04-0.137D-03 0.511D-03
 Coeff-Com:  0.643D-03-0.166D-01 0.115D+00-0.432D+00 0.133D+01
 Coeff:     -0.880D-07 0.321D-06 0.306D-06 0.225D-04-0.137D-03 0.511D-03
 Coeff:      0.643D-03-0.166D-01 0.115D+00-0.432D+00 0.133D+01
 Gap=     0.537 Goal=   None    Shift=    0.000
 RMSDP=2.92D-10 MaxDP=9.93D-09 DE=-8.53D-14 OVMax= 4.06D-08

 Cycle  12  Pass 1  IDiag  1:
 E= -76.0659427573667     Delta-E=        0.000000000000 Rises=F Damp=F
 DIIS: error= 5.90D-10 at cycle  12 NSaved=  12.
 NSaved=12 IEnMin=11 EnMin= -76.0659427573668     IErMin=12 ErrMin= 5.90D-10
 ErrMax= 5.90D-10  0.00D+00 EMaxC= 1.00D-01 BMatC= 7.36D-18 BMatP= 7.83D-16
 IDIUse=1 WtCom= 1.00D+00 WtEn= 0.00D+00
 Coeff-Com:  0.135D-07-0.449D-07-0.327D-07-0.357D-05 0.219D-04-0.849D-04
 Coeff-Com: -0.700D-04 0.261D-02-0.194D-01 0.793D-01-0.315D+00 0.125D+01
 Coeff:      0.135D-07-0.449D-07-0.327D-07-0.357D-05 0.219D-04-0.849D-04
 Coeff:     -0.700D-04 0.261D-02-0.194D-01 0.793D-01-0.315D+00 0.125D+01
 Gap=     0.537 Goal=   None    Shift=    0.000
 RMSDP=3.82D-11 MaxDP=1.81D-09 DE= 5.68D-14 OVMax= 3.94D-09

 Cycle  13  Pass 1  IDiag  1:
 E= -76.0659427573666     Delta-E=        0.000000000000 Rises=F Damp=F
 DIIS: error= 7.21D-11 at cycle  13 NSaved=  13.
 NSaved=13 IEnMin=11 EnMin= -76.0659427573668     IErMin=13 ErrMin= 7.21D-11
 ErrMax= 7.21D-11  0.00D+00 EMaxC= 1.00D-01 BMatC= 1.53D-19 BMatP= 7.36D-18
 IDIUse=1 WtCom= 1.00D+00 WtEn= 0.00D+00
 Coeff-Com: -0.134D-08 0.257D-08-0.523D-08 0.484D-06-0.263D-05 0.918D-05
 Coeff-Com:  0.142D-04-0.331D-03 0.238D-02-0.102D-01 0.462D-01-0.278D+00
 Coeff-Com:  0.124D+01
 Coeff:     -0.134D-08 0.257D-08-0.523D-08 0.484D-06-0.263D-05 0.918D-05
 Coeff:      0.142D-04-0.331D-03 0.238D-02-0.102D-01 0.462D-01-0.278D+00
 Coeff:      0.124D+01
 Gap=     0.537 Goal=   None    Shift=    0.000
 RMSDP=3.44D-12 MaxDP=1.33D-10 DE= 8.53D-14 OVMax= 3.99D-10

 Cycle  14  Pass 1  IDiag  1:
 E= -76.0659427573667     Delta-E=       -0.000000000000 Rises=F Damp=F
 DIIS: error= 8.24D-12 at cycle  14 NSaved=  14.
 NSaved=14 IEnMin=11 EnMin= -76.0659427573668     IErMin=14 ErrMin= 8.24D-12
 ErrMax= 8.24D-12  0.00D+00 EMaxC= 1.00D-01 BMatC= 3.06D-21 BMatP= 1.53D-19
 IDIUse=1 WtCom= 1.00D+00 WtEn= 0.00D+00
 Coeff-Com:  0.137D-09 0.856D-10 0.140D-08-0.706D-07 0.360D-06-0.111D-05
 Coeff-Com: -0.224D-05 0.417D-04-0.289D-03 0.125D-02-0.583D-02 0.460D-01
 Coeff-Com: -0.303D+00 0.126D+01
 Coeff:      0.137D-09 0.856D-10 0.140D-08-0.706D-07 0.360D-06-0.111D-05
 Coeff:     -0.224D-05 0.417D-04-0.289D-03 0.125D-02-0.583D-02 0.460D-01
 Coeff:     -0.303D+00 0.126D+01
 Gap=     0.537 Goal=   None    Shift=    0.000
 RMSDP=8.01D-13 MaxDP=3.46D-11 DE=-5.68D-14 OVMax= 4.34D-11

 SCF Done:  E(RHF) =  -76.0659427574     A.U. after   14 cycles
            NFock= 14  Conv=0.80D-12     -V/T= 2.0010
 KE= 7.599069705296D+01 PE=-1.990385599651D+02 EE= 3.779366173706D+01
 Leave Link  502 at Thu Dec 18 16:32:58 2025, MaxMem= 12079595520 cpu:              10.9 elap:              11.1
 (Enter /uufs/chpc.utah.edu/sys/installdir/gaussian16/C01/AVX2/g16/l801.exe)
 Windowed orbitals will be sorted by symmetry type.
 ExpMin= 2.36D-02 ExpMax= 6.14D+04 ExpMxC= 5.91D+02 IAcc=3 IRadAn=         5 AccDes= 0.00D+00
 HarFok:  IExCor=  205 AccDes= 0.00D+00 IRadAn=         5 IDoV=-2 UseB2=F ITyADJ=14
 ICtDFT= 12500011 ScaDFX=  1.000000  1.000000  1.000000  1.000000
 Largest valence mixing into a core orbital is  9.99D-05
 Largest core mixing into a valence orbital is  1.69D-05
 Range of M.O.s used for correlation:     2   172
 NBasis=   172 NAE=     5 NBE=     5 NFC=     1 NFV=     0
 NROrb=    171 NOA=     4 NOB=     4 NVA=   167 NVB=   167

 **** Warning!!: The largest alpha MO coefficient is  0.26693779D+02

 Leave Link  801 at Thu Dec 18 16:32:59 2025, MaxMem= 12079595520 cpu:               0.1 elap:               0.2
 (Enter /uufs/chpc.utah.edu/sys/installdir/gaussian16/C01/AVX2/g16/l804.exe)
 Closed-shell transformation, MDV= 12079595520 ITran=4 ISComp=2.
 Unit  1 TFree=        972284 TCopy=        640728.
 Semi-Direct transformation.
 ModeAB=           4 MOrb=             4 LenV=   12057481966
 LASXX=      2471919 LTotXX=     2471919 LenRXX=     4993329
 LTotAB=     2521410 MaxLAS=    10351656 LenRXY=           0
 NonZer=     7465248 LenScr=    11796480 LnRSAI=    10351656
 LnScr1=    15728640 LExtra=           0 Total=     42870105
 MaxDsk=          -1 SrtSym=           T ITran=            4
 DoSDTr:  NPSUse=  1
 JobTyp=0 Pass  1:  I=   1 to   4.
 (rs|ai) integrals will be sorted in core.
 Complete sort for first half transformation.
 First half transformation complete.
 Complete sort for second half transformation.
 Second half transformation complete.
 Spin components of T(2) and E(2):
     alpha-alpha T2 =       0.8188028049D-02 E2=     -0.3361294746D-01
     alpha-beta  T2 =       0.4818918354D-01 E2=     -0.2187480567D+00
     beta-beta   T2 =       0.8188028049D-02 E2=     -0.3361294746D-01
 ANorm=    0.1031777708D+01
 E2 =    -0.2859739516D+00 EUMP2 =    -0.76351916708954D+02
 Leave Link  804 at Thu Dec 18 16:33:08 2025, MaxMem= 12079595520 cpu:               8.4 elap:               8.5
 (Enter /uufs/chpc.utah.edu/sys/installdir/gaussian16/C01/AVX2/g16/l913.exe)
 CIDS:  MDV= 12079595520.
 Frozen-core window:  NFC=   1 NFV=   0.
 IFCWin=0 IBDFC=1 NFBD=     0     0 NFCmp=     0     0 NFFFC=     0     0
 Using DD3R+UMP44R for 1st iteration.
 Using DD4RQ for 2nd and later iterations.
 Keep R2 and R3 ints in memory in symmetry-blocked form, NReq=138605466.
 FoFCou: FMM=F IPFlag=           0 FMFlag=           0 FMFlg1=           0
         NFxFlg=           0 DoJE=F BraDBF=F KetDBF=F FulRan=T
         wScrn=  0.000000 ICntrl=       600 IOpCl=  0 I1Cent=           0 NGrid=           0
         NMat0=    1 NMatS0=  14878 NMatT0=    0 NMatD0=    1 NMtDS0=    0 NMtDT0=    0
 Petite list used in FoFCou.
 CIDS: In Core Option IDoMem=           1.
 CCSD(T)
 =======
 Iterations= 200 Convergence= 0.100D-09
 Produce multiple copies of IABC intergrals
 Iteration Nr.   1
 **********************
 DD1Dir will call FoFMem   1 times, MxPair=        20
 NAB=    10 NAA=     0 NBB=     0.
 MP4(R+Q)=  0.46702555D-02
 Maximum subspace dimension=  5
 A-vector RMS=  1.8924923D-03 Max=  1.0088537D-02 conv= 1.00D-08.
 RLE energy=       -0.2820785606
 E3=       -0.76230353D-03        EUMP3=      -0.76352679012D+02
 E4(DQ)=   -0.13158247D-03        UMP4(DQ)=   -0.76352810595D+02
 E4(SDQ)=  -0.19621388D-02        UMP4(SDQ)=  -0.76354641151D+02
 VARIATIONAL ENERGIES WITH THE FIRST-ORDER WAVEFUNCTION:
 DE(Corr)= -0.28202477     E(Corr)=     -76.347967530    
 NORM(A)=   0.10310932D+01
 Iteration Nr.   2
 **********************
 DD1Dir will call FoFMem   1 times, MxPair=        20
 NAB=    10 NAA=     0 NBB=     0.
 A-vector RMS=  2.0281177D-04 Max=  1.7344412D-03 conv= 1.00D-08.
 RLE energy=       -0.2879221318
 DE(Corr)= -0.28760314     E(CORR)=     -76.353545894     Delta=-5.58D-03
 NORM(A)=   0.10331513D+01
 Iteration Nr.   3
 **********************
 DD1Dir will call FoFMem   1 times, MxPair=        20
 NAB=    10 NAA=     0 NBB=     0.
 A-vector RMS=  2.6630173D-04 Max=  1.9989524D-03 conv= 1.00D-08.
 RLE energy=       -0.2882311267
 DE(Corr)= -0.28785666     E(CORR)=     -76.353799415     Delta=-2.54D-04
 NORM(A)=   0.10335352D+01
 Iteration Nr.   4
 **********************
 DD1Dir will call FoFMem   1 times, MxPair=        20
 NAB=    10 NAA=     0 NBB=     0.
 A-vector RMS=  4.1429726D-05 Max=  3.4431095D-04 conv= 1.00D-08.
 RLE energy=       -0.2882571272
 DE(Corr)= -0.28823050     E(CORR)=     -76.354173261     Delta=-3.74D-04
 NORM(A)=   0.10336397D+01
 Iteration Nr.   5
 **********************
 DD1Dir will call FoFMem   1 times, MxPair=        20
 NAB=    10 NAA=     0 NBB=     0.
 A-vector RMS=  2.3386697D-05 Max=  2.0261845D-04 conv= 1.00D-08.
 RLE energy=       -0.2882694530
 DE(Corr)= -0.28826471     E(CORR)=     -76.354207467     Delta=-3.42D-05
 NORM(A)=   0.10336614D+01
 Iteration Nr.   6
 **********************
 DD1Dir will call FoFMem   1 times, MxPair=        20
 NAB=    10 NAA=     0 NBB=     0.
 A-vector RMS=  5.0346565D-06 Max=  3.9385469D-05 conv= 1.00D-08.
 RLE energy=       -0.2882663931
 DE(Corr)= -0.28826721     E(CORR)=     -76.354209971     Delta=-2.50D-06
 NORM(A)=   0.10336634D+01
 Iteration Nr.   7
 **********************
 DD1Dir will call FoFMem   1 times, MxPair=        20
 NAB=    10 NAA=     0 NBB=     0.
 A-vector RMS=  1.6684231D-06 Max=  1.1661351D-05 conv= 1.00D-08.
 RLE energy=       -0.2882662455
 DE(Corr)= -0.28826725     E(CORR)=     -76.354210006     Delta=-3.50D-08
 NORM(A)=   0.10336641D+01
 Iteration Nr.   8
 **********************
 DD1Dir will call FoFMem   1 times, MxPair=        20
 NAB=    10 NAA=     0 NBB=     0.
 A-vector RMS=  6.8370668D-07 Max=  5.6164545D-06 conv= 1.00D-08.
 RLE energy=       -0.2882669345
 DE(Corr)= -0.28826705     E(CORR)=     -76.354209806     Delta= 2.00D-07
 NORM(A)=   0.10336644D+01
 Iteration Nr.   9
 **********************
 DD1Dir will call FoFMem   1 times, MxPair=        20
 NAB=    10 NAA=     0 NBB=     0.
 A-vector RMS=  1.5472459D-07 Max=  1.0590420D-06 conv= 1.00D-08.
 RLE energy=       -0.2882669816
 DE(Corr)= -0.28826700     E(CORR)=     -76.354209762     Delta= 4.38D-08
 NORM(A)=   0.10336646D+01
 Iteration Nr.  10
 **********************
 DD1Dir will call FoFMem   1 times, MxPair=        20
 NAB=    10 NAA=     0 NBB=     0.
 A-vector RMS=  6.4682411D-08 Max=  4.4855095D-07 conv= 1.00D-08.
 RLE energy=       -0.2882670651
 DE(Corr)= -0.28826706     E(CORR)=     -76.354209819     Delta=-5.66D-08
 NORM(A)=   0.10336647D+01
 Iteration Nr.  11
 **********************
 DD1Dir will call FoFMem   1 times, MxPair=        20
 NAB=    10 NAA=     0 NBB=     0.
 A-vector RMS=  1.9041275D-08 Max=  1.9602502D-07 conv= 1.00D-08.
 RLE energy=       -0.2882670902
 DE(Corr)= -0.28826708     E(CORR)=     -76.354209839     Delta=-2.07D-08
 NORM(A)=   0.10336647D+01
 Iteration Nr.  12
 **********************
 DD1Dir will call FoFMem   1 times, MxPair=        20
 NAB=    10 NAA=     0 NBB=     0.
 A-vector RMS=  8.9193069D-09 Max=  7.1860960D-08 conv= 1.00D-08.
 RLE energy=       -0.2882670952
 DE(Corr)= -0.28826709     E(CORR)=     -76.354209849     Delta=-9.93D-09
 NORM(A)=   0.10336647D+01
 Iteration Nr.  13
 **********************
 DD1Dir will call FoFMem   1 times, MxPair=        20
 NAB=    10 NAA=     0 NBB=     0.
 A-vector RMS=  3.3290405D-09 Max=  2.8780437D-08 conv= 1.00D-08.
 RLE energy=       -0.2882670978
 DE(Corr)= -0.28826710     E(CORR)=     -76.354209854     Delta=-4.66D-09
 NORM(A)=   0.10336647D+01
 Iteration Nr.  14
 **********************
 DD1Dir will call FoFMem   1 times, MxPair=        20
 NAB=    10 NAA=     0 NBB=     0.
 A-vector RMS=  1.0786712D-09 Max=  1.0703122D-08 conv= 1.00D-08.
 RLE energy=       -0.2882670978
 DE(Corr)= -0.28826710     E(CORR)=     -76.354209855     Delta=-8.89D-10
 NORM(A)=   0.10336647D+01
 Iteration Nr.  15
 **********************
 DD1Dir will call FoFMem   1 times, MxPair=        20
 NAB=    10 NAA=     0 NBB=     0.
 A-vector RMS=  6.0795895D-10 Max=  3.2384394D-09 conv= 1.00D-08.
 RLE energy=       -0.2882670974
 DE(Corr)= -0.28826710     E(CORR)=     -76.354209855     Delta= 2.90D-11
 NORM(A)=   0.10336647D+01
 CI/CC converged in   15 iterations to DelEn= 2.90D-11 Conv= 1.00D-10 ErrA1= 6.08D-10 Conv= 1.00D-08
 Wavefunction amplitudes converged. E(Corr)=     -76.354209855    
 T1 Diagnostic =     0.00930463
 Largest amplitude= 2.05D-02
 IPart=  1 IA=   10   10.52% done.
 IPart=  1 IA=   19   20.45% done.
 IPart=  1 IA=   29   30.81% done.
 IPart=  1 IA=   39   40.44% done.
 IPart=  1 IA=   50   50.20% done.
 IPart=  1 IA=   63   60.61% done.
 IPart=  1 IA=   77   70.46% done.
 IPart=  1 IA=   94   80.51% done.
 IPart=  1 IA=  115   90.06% done.
 Time for triples=       28.59 seconds.
 T4(CCSD)= -0.96761085D-02
 T5(CCSD)=  0.30026466D-03
 CCSD(T)= -0.76363585699D+02
 Discarding MO integrals.
 Leave Link  913 at Thu Dec 18 16:33:59 2025, MaxMem= 12079595520 cpu:              50.4 elap:              51.1
 (Enter /uufs/chpc.utah.edu/sys/installdir/gaussian16/C01/AVX2/g16/l601.exe)
 Copying SCF densities to generalized density rwf, IOpCl= 0 IROHF=0.

 **********************************************************************

            Population analysis using the SCF Density.

 **********************************************************************

 Orbital symmetries:
       Occupied  (A1) (A1) (B2) (A1) (B1)
       Virtual   (A1) (B2) (A1) (B1) (A1) (B2) (B2) (A1) (A2) (B1)
                 (A1) (B2) (A1) (B2) (B2) (A1) (A1) (A2) (B1) (A1)
                 (B1) (B1) (B2) (A2) (A1) (A1) (B2) (B2) (A1) (B1)
                 (B2) (A1) (A2) (B2) (A1) (A2) (B1) (A1) (B2) (A1)
                 (B1) (B2) (A1) (A2) (B1) (B2) (A1) (B1) (A1) (A2)
                 (B2) (A1) (B1) (A1) (B2) (B2) (A1) (A2) (B2) (B1)
                 (A2) (B2) (A1) (B1) (A2) (A1) (B2) (A1) (B2) (B1)
                 (A2) (A1) (B1) (B2) (A1) (B2) (B1) (A2) (A1) (B2)
                 (A1) (A2) (B2) (A1) (B2) (B1) (A1) (B1) (A2) (B2)
                 (A1) (B1) (A1) (A1) (B2) (B1) (A1) (B2) (A2) (B1)
                 (A2) (A1) (A1) (B2) (B1) (A1) (B2) (A2) (B2) (A1)
                 (B1) (A2) (B2) (A1) (B2) (B1) (A2) (A2) (B2) (A1)
                 (B2) (A1) (A1) (B1) (B2) (A1) (A2) (B1) (A1) (B1)
                 (A2) (B2) (A1) (B2) (B2) (A1) (B1) (A2) (B2) (A1)
                 (A1) (B1) (B2) (A1) (B1) (A2) (A1) (A2) (B2) (B1)
                 (A1) (B1) (B2) (A1) (A1) (B1) (A2) (B2) (B2) (A1)
                 (B1) (A2) (A1) (B2) (A1) (B2) (A1)
 The electronic state is 1-A1.
 Alpha  occ. eigenvalues --  -20.56491  -1.35259  -0.71725  -0.58505  -0.51046
 Alpha virt. eigenvalues --    0.02693   0.04309   0.11418   0.13330   0.15110
 Alpha virt. eigenvalues --    0.15861   0.18516   0.19715   0.20925   0.23791
 Alpha virt. eigenvalues --    0.25724   0.29158   0.35815   0.39048   0.47006
 Alpha virt. eigenvalues --    0.50866   0.54224   0.54753   0.55602   0.61426
 Alpha virt. eigenvalues --    0.63245   0.64750   0.66327   0.66559   0.68539
 Alpha virt. eigenvalues --    0.70622   0.71890   0.76991   0.78990   0.80240
 Alpha virt. eigenvalues --    0.80457   0.84340   0.85417   0.96759   1.12534
 Alpha virt. eigenvalues --    1.13649   1.21091   1.33217   1.43844   1.48276
 Alpha virt. eigenvalues --    1.50905   1.51529   1.52580   1.55428   1.59012
 Alpha virt. eigenvalues --    1.62096   1.63878   1.66327   1.66367   1.68789
 Alpha virt. eigenvalues --    1.70285   1.73412   1.75334   1.76823   1.77851
 Alpha virt. eigenvalues --    1.84188   1.86403   1.89305   1.91412   1.97984
 Alpha virt. eigenvalues --    2.00894   2.03283   2.03672   2.09862   2.20773
 Alpha virt. eigenvalues --    2.21825   2.31397   2.44501   2.63161   2.63596
 Alpha virt. eigenvalues --    2.88967   2.96265   2.99836   3.03910   3.05832
 Alpha virt. eigenvalues --    3.08759   3.27569   3.29950   3.30618   3.49610
 Alpha virt. eigenvalues --    3.58893   3.64618   3.68887   3.72448   3.77482
 Alpha virt. eigenvalues --    3.92219   4.07692   4.16572   4.16617   4.17700
 Alpha virt. eigenvalues --    4.17859   4.23379   4.33237   4.43059   4.58081
 Alpha virt. eigenvalues --    4.72437   4.74861   4.78600   4.78814   4.80727
 Alpha virt. eigenvalues --    4.87978   4.99709   5.24208   5.31464   5.53043
 Alpha virt. eigenvalues --    5.53522   5.86681   5.89103   6.07674   6.23958
 Alpha virt. eigenvalues --    6.83152   6.88335   6.88460   6.91727   7.73216
 Alpha virt. eigenvalues --    7.78437   7.79491   7.82595   7.84407   7.90756
 Alpha virt. eigenvalues --    7.92592   8.02358   8.19033   8.20912   8.53542
 Alpha virt. eigenvalues --    8.63478   8.64368   8.70169   8.79701   8.85265
 Alpha virt. eigenvalues --    8.98412   9.04638   9.21558   9.66022   9.90444
 Alpha virt. eigenvalues --    9.91946   9.95190  10.00056  10.34811  10.46266
 Alpha virt. eigenvalues --   10.66279  11.01252  11.06932  11.08255  11.26639
 Alpha virt. eigenvalues --   11.31767  11.41708  11.71345  11.79616  11.82734
 Alpha virt. eigenvalues --   11.99135  12.19555  12.21212  12.62023  12.74011
 Alpha virt. eigenvalues --   12.83990  12.90617  13.17873  14.01798  14.02202
 Alpha virt. eigenvalues --   14.51276  14.82077  14.90671  15.27534  16.86124
 Alpha virt. eigenvalues --   17.29852  45.51950
          Condensed to atoms (all electrons):
               1          2          3
     1  O    8.028071   0.277721   0.277721
     2  H    0.277721   0.414010   0.016513
     3  H    0.277721   0.016513   0.414010
 Mulliken charges:
               1
     1  O   -0.583513
     2  H    0.291756
     3  H    0.291756
 Sum of Mulliken charges =  -0.00000
 Mulliken charges with hydrogens summed into heavy atoms:
               1
     1  O   -0.000000
 Electronic spatial extent (au):  <R**2>=             19.4677
 Charge=             -0.0000 electrons
 Dipole moment (field-independent basis, Debye):
    X=             -0.0000    Y=             -0.0000    Z=             -1.9826  Tot=              1.9826
 Quadrupole moment (field-independent basis, Debye-Ang):
   XX=             -7.5538   YY=             -4.2423   ZZ=             -6.2357
   XY=              0.0000   XZ=              0.0000   YZ=              0.0000
 Traceless Quadrupole moment (field-independent basis, Debye-Ang):
   XX=             -1.5432   YY=              1.7683   ZZ=             -0.2251
   XY=              0.0000   XZ=              0.0000   YZ=              0.0000
 Octapole moment (field-independent basis, Debye-Ang**2):
  XXX=              0.0000  YYY=              0.0000  ZZZ=             -1.1437  XYY=             -0.0000
  XXY=              0.0000  XXZ=             -0.2536  XZZ=              0.0000  YZZ=             -0.0000
  YYZ=             -1.4032  XYZ=             -0.0000
 Hexadecapole moment (field-independent basis, Debye-Ang**3):
 XXXX=             -6.7192 YYYY=             -5.9408 ZZZZ=             -7.2178 XXXY=             -0.0000
 XXXZ=             -0.0000 YYYX=              0.0000 YYYZ=              0.0000 ZZZX=             -0.0000
 ZZZY=             -0.0000 XXYY=             -2.4402 XXZZ=             -2.3744 YYZZ=             -1.8389
 XXYZ=             -0.0000 YYXZ=              0.0000 ZZXY=              0.0000
 N-N= 9.188258417746D+00 E-N=-1.990385599650D+02  KE= 7.599069705296D+01
 Symmetry A1   KE= 6.793106155066D+01
 Symmetry A2   KE=-5.851553806936D-23
 Symmetry B1   KE= 4.476111639218D+00
 Symmetry B2   KE= 3.583523863075D+00
 Leave Link  601 at Thu Dec 18 16:34:03 2025, MaxMem= 12079595520 cpu:               0.1 elap:               0.3
 (Enter /uufs/chpc.utah.edu/sys/installdir/gaussian16/C01/AVX2/g16/l110.exe)
 EnFreq: symmetry will be used.
 Leave EnFreq:  IXYZ= 0 JXYZ= 1 IStep= 1.
 Leave Link  110 at Thu Dec 18 16:34:03 2025, MaxMem= 12079595520 cpu:               0.0 elap:               0.1
 (Enter /uufs/chpc.utah.edu/sys/installdir/gaussian16/C01/AVX2/g16/l301.exe)
 Standard basis: Aug-CC-pVQZ (5D, 7F)
 Ernie: Thresh=  0.10000D-02 Tol=  0.10000D-17 Strict=F.
 Ernie:  1 primitive shells out of 70 were deleted.
   172 basis functions,   240 primitive gaussians,   215 cartesian basis functions
     5 alpha electrons        5 beta electrons
       nuclear repulsion energy         9.1877768441 Hartrees.
 IExCor=    0 DFT=F Ex=HF Corr=None ExCW=0 ScaHFX=  1.000000
 ScaDFX=  1.000000  1.000000  1.000000  1.000000 ScalE2=  1.000000  1.000000
 IRadAn=      5 IRanWt=     -1 IRanGd=            0 ICorTp=0 IEmpDi=  4
 NAtoms=    3 NActive=    3 NUniq=    3 SFac= 1.00D+00 NAtFMM=   60 NAOKFM=F Big=F
 Integral buffers will be    131072 words long.
 Raffenetti 1 integral format.
 Two-electron integral symmetry is turned off.
 Leave Link  301 at Thu Dec 18 16:34:03 2025, MaxMem= 12079595520 cpu:               0.1 elap:               0.1
 (Enter /uufs/chpc.utah.edu/sys/installdir/gaussian16/C01/AVX2/g16/l302.exe)
 NPDir=0 NMtPBC=     1 NCelOv=     1 NCel=       1 NClECP=     1 NCelD=      1
         NCelK=      1 NCelE2=     1 NClLst=     1 CellRange=     0.0.
 One-electron integrals computed using PRISM.
 NBasis=   172 RedAO= T EigKep=  8.66D-05  NBF=   172
 NBsUse=   172 1.00D-06 EigRej= -1.00D+00 NBFU=   172
 Leave Link  302 at Thu Dec 18 16:34:04 2025, MaxMem= 12079595520 cpu:               0.1 elap:               0.2
 (Enter /uufs/chpc.utah.edu/sys/installdir/gaussian16/C01/AVX2/g16/l303.exe)
 DipDrv:  MaxL=1.
 Leave Link  303 at Thu Dec 18 16:34:04 2025, MaxMem= 12079595520 cpu:               0.0 elap:               0.1
 (Enter /uufs/chpc.utah.edu/sys/installdir/gaussian16/C01/AVX2/g16/l401.exe)
 Initial guess from the checkpoint file:  "h2o_ccsdt_sp.chk"
 B after Tr=     0.015118   -0.000000   -0.000000
         Rot=    0.999964   -0.000000   -0.008517   -0.000000 Ang=  -0.98 deg.
 Guess basis will be translated and rotated to current coordinates.
 JPrj=2 DoOrth=T DoCkMO=T.
 Leave Link  401 at Thu Dec 18 16:34:04 2025, MaxMem= 12079595520 cpu:               0.1 elap:               0.1
 (Enter /uufs/chpc.utah.edu/sys/installdir/gaussian16/C01/AVX2/g16/l502.exe)
 Keep R1 ints in memory in canonical form, NReq=115724081.
 FoFCou: FMM=F IPFlag=           0 FMFlag=           0 FMFlg1=           0
         NFxFlg=           0 DoJE=F BraDBF=F KetDBF=F FulRan=T
         wScrn=  0.000000 ICntrl=       600 IOpCl=  0 I1Cent=           0 NGrid=           0
         NMat0=    1 NMatS0=  14878 NMatT0=    0 NMatD0=    1 NMtDS0=    0 NMtDT0=    0
 Symmetry not used in FoFCou.
 Two-electron integral symmetry not used.
 Closed shell SCF:
 Using DIIS extrapolation, IDIIS=  1040.
 NGot= 12079595520 LenX= 11968815508 LenY= 11968768842
 Requested convergence on RMS density matrix=1.00D-12 within 200 cycles.
 Requested convergence on MAX density matrix=1.00D-10.
 Requested convergence on             energy=1.00D-10.
 No special actions if energy rises.

 Cycle   1  Pass 1  IDiag  1:
 E= -76.0659384306227    
 DIIS: error= 9.68D-06 at cycle   1 NSaved=   1.
 NSaved= 1 IEnMin= 1 EnMin= -76.0659384306227     IErMin= 1 ErrMin= 9.68D-06
 ErrMax= 9.68D-06  0.00D+00 EMaxC= 1.00D-01 BMatC= 3.89D-09 BMatP= 3.89D-09
 IDIUse=1 WtCom= 1.00D+00 WtEn= 0.00D+00
 Coeff-Com:  0.100D+01
 Coeff:      0.100D+01
 Gap=     0.968 Goal=   None    Shift=    0.000
 RMSDP=1.94D-07 MaxDP=6.81D-06              OVMax= 1.83D-05

 Cycle   2  Pass 1  IDiag  1:
 E= -76.0659384331035     Delta-E=       -0.000000002481 Rises=F Damp=F
 DIIS: error= 1.54D-06 at cycle   2 NSaved=   2.
 NSaved= 2 IEnMin= 2 EnMin= -76.0659384331035     IErMin= 2 ErrMin= 1.54D-06
 ErrMax= 1.54D-06  0.00D+00 EMaxC= 1.00D-01 BMatC= 2.41D-10 BMatP= 3.89D-09
 IDIUse=1 WtCom= 1.00D+00 WtEn= 0.00D+00
 Coeff-Com: -0.130D-01 0.101D+01
 Coeff:     -0.130D-01 0.101D+01
 Gap=     0.537 Goal=   None    Shift=    0.000
 RMSDP=6.36D-08 MaxDP=3.37D-06 DE=-2.48D-09 OVMax= 6.17D-06

 Cycle   3  Pass 1  IDiag  1:
 E= -76.0659384332968     Delta-E=       -0.000000000193 Rises=F Damp=F
 DIIS: error= 1.20D-06 at cycle   3 NSaved=   3.
 NSaved= 3 IEnMin= 3 EnMin= -76.0659384332968     IErMin= 3 ErrMin= 1.20D-06
 ErrMax= 1.20D-06  0.00D+00 EMaxC= 1.00D-01 BMatC= 5.28D-11 BMatP= 2.41D-10
 IDIUse=1 WtCom= 1.00D+00 WtEn= 0.00D+00
 Coeff-Com: -0.498D-01 0.275D+00 0.775D+00
 Coeff:     -0.498D-01 0.275D+00 0.775D+00
 Gap=     0.537 Goal=   None    Shift=    0.000
 RMSDP=2.39D-08 MaxDP=9.81D-07 DE=-1.93D-10 OVMax= 2.69D-06

 Cycle   4  Pass 1  IDiag  1:
 E= -76.0659384333417     Delta-E=       -0.000000000045 Rises=F Damp=F
 DIIS: error= 2.31D-07 at cycle   4 NSaved=   4.
 NSaved= 4 IEnMin= 4 EnMin= -76.0659384333417     IErMin= 4 ErrMin= 2.31D-07
 ErrMax= 2.31D-07  0.00D+00 EMaxC= 1.00D-01 BMatC= 3.27D-12 BMatP= 5.28D-11
 IDIUse=1 WtCom= 1.00D+00 WtEn= 0.00D+00
 Coeff-Com:  0.299D-02-0.106D+00 0.921D-02 0.109D+01
 Coeff:      0.299D-02-0.106D+00 0.921D-02 0.109D+01
 Gap=     0.537 Goal=   None    Shift=    0.000
 RMSDP=1.11D-08 MaxDP=5.60D-07 DE=-4.50D-11 OVMax= 1.37D-06

 Cycle   5  Pass 1  IDiag  1:
 E= -76.0659384333477     Delta-E=       -0.000000000006 Rises=F Damp=F
 DIIS: error= 5.79D-08 at cycle   5 NSaved=   5.
 NSaved= 5 IEnMin= 5 EnMin= -76.0659384333477     IErMin= 5 ErrMin= 5.79D-08
 ErrMax= 5.79D-08  0.00D+00 EMaxC= 1.00D-01 BMatC= 1.62D-13 BMatP= 3.27D-12
 IDIUse=1 WtCom= 1.00D+00 WtEn= 0.00D+00
 Coeff-Com:  0.271D-02-0.110D-01-0.525D-01-0.106D+00 0.117D+01
 Coeff:      0.271D-02-0.110D-01-0.525D-01-0.106D+00 0.117D+01
 Gap=     0.537 Goal=   None    Shift=    0.000
 RMSDP=3.58D-09 MaxDP=1.31D-07 DE=-5.97D-12 OVMax= 4.75D-07

 Cycle   6  Pass 1  IDiag  1:
 E= -76.0659384333482     Delta-E=       -0.000000000000 Rises=F Damp=F
 DIIS: error= 1.45D-08 at cycle   6 NSaved=   6.
 NSaved= 6 IEnMin= 6 EnMin= -76.0659384333482     IErMin= 6 ErrMin= 1.45D-08
 ErrMax= 1.45D-08  0.00D+00 EMaxC= 1.00D-01 BMatC= 8.19D-15 BMatP= 1.62D-13
 IDIUse=1 WtCom= 1.00D+00 WtEn= 0.00D+00
 Coeff-Com: -0.919D-03 0.881D-02 0.154D-01-0.230D-01-0.362D+00 0.136D+01
 Coeff:     -0.919D-03 0.881D-02 0.154D-01-0.230D-01-0.362D+00 0.136D+01
 Gap=     0.537 Goal=   None    Shift=    0.000
 RMSDP=6.96D-10 MaxDP=2.90D-08 DE=-4.83D-13 OVMax= 1.08D-07

 Cycle   7  Pass 1  IDiag  1:
 E= -76.0659384333482     Delta-E=        0.000000000000 Rises=F Damp=F
 DIIS: error= 2.29D-09 at cycle   7 NSaved=   7.
 NSaved= 7 IEnMin= 6 EnMin= -76.0659384333482     IErMin= 7 ErrMin= 2.29D-09
 ErrMax= 2.29D-09  0.00D+00 EMaxC= 1.00D-01 BMatC= 2.63D-16 BMatP= 8.19D-15
 IDIUse=1 WtCom= 1.00D+00 WtEn= 0.00D+00
 Coeff-Com:  0.206D-03-0.229D-02-0.378D-02 0.714D-02 0.994D-01-0.487D+00
 Coeff-Com:  0.139D+01
 Coeff:      0.206D-03-0.229D-02-0.378D-02 0.714D-02 0.994D-01-0.487D+00
 Coeff:      0.139D+01
 Gap=     0.537 Goal=   None    Shift=    0.000
 RMSDP=1.44D-10 MaxDP=4.69D-09 DE= 0.00D+00 OVMax= 1.72D-08

 Cycle   8  Pass 1  IDiag  1:
 E= -76.0659384333481     Delta-E=        0.000000000000 Rises=F Damp=F
 DIIS: error= 3.54D-10 at cycle   8 NSaved=   8.
 NSaved= 8 IEnMin= 6 EnMin= -76.0659384333482     IErMin= 8 ErrMin= 3.54D-10
 ErrMax= 3.54D-10  0.00D+00 EMaxC= 1.00D-01 BMatC= 5.97D-18 BMatP= 2.63D-16
 IDIUse=1 WtCom= 1.00D+00 WtEn= 0.00D+00
 Coeff-Com: -0.372D-04 0.484D-03 0.674D-03-0.206D-02-0.174D-01 0.107D+00
 Coeff-Com: -0.424D+00 0.134D+01
 Coeff:     -0.372D-04 0.484D-03 0.674D-03-0.206D-02-0.174D-01 0.107D+00
 Coeff:     -0.424D+00 0.134D+01
 Gap=     0.537 Goal=   None    Shift=    0.000
 RMSDP=2.37D-11 MaxDP=1.13D-09 DE= 7.11D-14 OVMax= 2.72D-09

 Cycle   9  Pass 1  IDiag  1:
 E= -76.0659384333481     Delta-E=        0.000000000000 Rises=F Damp=F
 DIIS: error= 6.61D-11 at cycle   9 NSaved=   9.
 NSaved= 9 IEnMin= 6 EnMin= -76.0659384333482     IErMin= 9 ErrMin= 6.61D-11
 ErrMax= 6.61D-11  0.00D+00 EMaxC= 1.00D-01 BMatC= 7.28D-20 BMatP= 5.97D-18
 IDIUse=1 WtCom= 1.00D+00 WtEn= 0.00D+00
 Coeff-Com:  0.511D-05-0.707D-04-0.102D-03 0.314D-03 0.258D-02-0.170D-01
 Coeff-Com:  0.777D-01-0.327D+00 0.126D+01
 Coeff:      0.511D-05-0.707D-04-0.102D-03 0.314D-03 0.258D-02-0.170D-01
 Coeff:      0.777D-01-0.327D+00 0.126D+01
 Gap=     0.537 Goal=   None    Shift=    0.000
 RMSDP=5.59D-12 MaxDP=2.45D-10 DE= 2.84D-14 OVMax= 2.16D-10

 Cycle  10  Pass 1  IDiag  1:
 E= -76.0659384333479     Delta-E=        0.000000000000 Rises=F Damp=F
 DIIS: error= 7.67D-12 at cycle  10 NSaved=  10.
 NSaved=10 IEnMin= 6 EnMin= -76.0659384333482     IErMin=10 ErrMin= 7.67D-12
 ErrMax= 7.67D-12  0.00D+00 EMaxC= 1.00D-01 BMatC= 1.63D-21 BMatP= 7.28D-20
 IDIUse=1 WtCom= 1.00D+00 WtEn= 0.00D+00
 Coeff-Com: -0.122D-05 0.165D-04 0.262D-04-0.700D-04-0.661D-03 0.420D-02
 Coeff-Com: -0.195D-01 0.861D-01-0.404D+00 0.133D+01
 Coeff:     -0.122D-05 0.165D-04 0.262D-04-0.700D-04-0.661D-03 0.420D-02
 Coeff:     -0.195D-01 0.861D-01-0.404D+00 0.133D+01
 Gap=     0.537 Goal=   None    Shift=    0.000
 RMSDP=5.23D-13 MaxDP=1.81D-11 DE= 1.99D-13 OVMax= 3.89D-11

 SCF Done:  E(RHF) =  -76.0659384333     A.U. after   10 cycles
            NFock= 10  Conv=0.52D-12     -V/T= 2.0010
 KE= 7.599050634516D+01 PE=-1.990374955487D+02 EE= 3.779327392613D+01
 Leave Link  502 at Thu Dec 18 16:34:12 2025, MaxMem= 12079595520 cpu:               8.1 elap:               8.2
 (Enter /uufs/chpc.utah.edu/sys/installdir/gaussian16/C01/AVX2/g16/l801.exe)
 Windowed orbitals will be sorted by symmetry type.
 ExpMin= 2.36D-02 ExpMax= 6.14D+04 ExpMxC= 5.91D+02 IAcc=3 IRadAn=         5 AccDes= 0.00D+00
 HarFok:  IExCor=  205 AccDes= 0.00D+00 IRadAn=         5 IDoV=-2 UseB2=F ITyADJ=14
 ICtDFT= 12500011 ScaDFX=  1.000000  1.000000  1.000000  1.000000
 Largest valence mixing into a core orbital is  9.99D-05
 Largest core mixing into a valence orbital is  1.69D-05
 Range of M.O.s used for correlation:     2   172
 NBasis=   172 NAE=     5 NBE=     5 NFC=     1 NFV=     0
 NROrb=    171 NOA=     4 NOB=     4 NVA=   167 NVB=   167

 **** Warning!!: The largest alpha MO coefficient is  0.26685104D+02

 Leave Link  801 at Thu Dec 18 16:34:12 2025, MaxMem= 12079595520 cpu:               0.1 elap:               0.2
 (Enter /uufs/chpc.utah.edu/sys/installdir/gaussian16/C01/AVX2/g16/l804.exe)
 Closed-shell transformation, MDV= 12079595520 ITran=4 ISComp=1.
 Semi-Direct transformation.
 ModeAB=           2 MOrb=             4 LenV=   12057469616
 LASXX=      9792567 LTotXX=     9792567 LenRXX=     9792567
 LTotAB=     9963988 MaxLAS=    15882480 LenRXY=    15882480
 NonZer=    19585134 LenScr=    29884416 LnRSAI=           0
 LnScr1=           0 LExtra=           0 Total=     55559463
 MaxDsk=          -1 SrtSym=           F ITran=            4
 DoSDTr:  NPSUse=  1
 JobTyp=0 Pass  1:  I=   1 to   4.
 (rs|ai) integrals will be sorted in core.
 Complete sort for first half transformation.
 First half transformation complete.
 Complete sort for second half transformation.
 Second half transformation complete.
 Spin components of T(2) and E(2):
     alpha-alpha T2 =       0.8188509933D-02 E2=     -0.3361349136D-01
     alpha-beta  T2 =       0.4819227336D-01 E2=     -0.2187515013D+00
     beta-beta   T2 =       0.8188509933D-02 E2=     -0.3361349136D-01
 ANorm=    0.1031779673D+01
 E2 =    -0.2859784840D+00 EUMP2 =    -0.76351916917393D+02
 Leave Link  804 at Thu Dec 18 16:34:24 2025, MaxMem= 12079595520 cpu:              11.5 elap:              11.6
 (Enter /uufs/chpc.utah.edu/sys/installdir/gaussian16/C01/AVX2/g16/l913.exe)
 CIDS:  MDV= 12079595520.
 Frozen-core window:  NFC=   1 NFV=   0.
 IFCWin=0 IBDFC=1 NFBD=     0     0 NFCmp=     0     0 NFFFC=     0     0
 Using DD3R+UMP44R for 1st iteration.
 Using DD4RQ for 2nd and later iterations.
 Keep R2 and R3 ints in memory in canonical form, NReq=226413020.
 FoFCou: FMM=F IPFlag=           0 FMFlag=           0 FMFlg1=           0
         NFxFlg=           0 DoJE=F BraDBF=F KetDBF=F FulRan=T
         wScrn=  0.000000 ICntrl=       600 IOpCl=  0 I1Cent=           0 NGrid=           0
         NMat0=    1 NMatS0=  14878 NMatT0=    0 NMatD0=    1 NMtDS0=    0 NMtDT0=    0
 Symmetry not used in FoFCou.
 Two-electron integral symmetry not used.
 CIDS: In Core Option IDoMem=           1.
 CCSD(T)
 =======
 Iterations= 200 Convergence= 0.100D-09
 Produce multiple copies of IABC intergrals
 Iteration Nr.   1
 **********************
 DD1Dir will call FoFMem   1 times, MxPair=        20
 NAB=    10 NAA=     0 NBB=     0.
 MP4(R+Q)=  0.46705254D-02
 Maximum subspace dimension=  5
 A-vector RMS=  1.8926711D-03 Max=  1.0089815D-02 conv= 1.00D-08.
 RLE energy=       -0.2820817036
 E3=       -0.76115155D-03        EUMP3=      -0.76352678069D+02
 E4(DQ)=   -0.13189420D-03        UMP4(DQ)=   -0.76352809963D+02
 E4(SDQ)=  -0.19627448D-02        UMP4(SDQ)=  -0.76354640814D+02
 VARIATIONAL ENERGIES WITH THE FIRST-ORDER WAVEFUNCTION:
 DE(Corr)= -0.28202788     E(Corr)=     -76.347966311    
 NORM(A)=   0.10310949D+01
 Iteration Nr.   2
 **********************
 DD1Dir will call FoFMem   1 times, MxPair=        20
 NAB=    10 NAA=     0 NBB=     0.
 A-vector RMS=  2.0284006D-04 Max=  1.7346620D-03 conv= 1.00D-08.
 RLE energy=       -0.2879259758
 DE(Corr)= -0.28760695     E(CORR)=     -76.353545387     Delta=-5.58D-03
 NORM(A)=   0.10331534D+01
 Iteration Nr.   3
 **********************
 DD1Dir will call FoFMem   1 times, MxPair=        20
 NAB=    10 NAA=     0 NBB=     0.
 A-vector RMS=  2.6633609D-04 Max=  1.9992387D-03 conv= 1.00D-08.
 RLE energy=       -0.2882350363
 DE(Corr)= -0.28786049     E(CORR)=     -76.353798922     Delta=-2.54D-04
 NORM(A)=   0.10335374D+01
 Iteration Nr.   4
 **********************
 DD1Dir will call FoFMem   1 times, MxPair=        20
 NAB=    10 NAA=     0 NBB=     0.
 A-vector RMS=  4.1438423D-05 Max=  3.4436173D-04 conv= 1.00D-08.
 RLE energy=       -0.2882610448
 DE(Corr)= -0.28823441     E(CORR)=     -76.354172848     Delta=-3.74D-04
 NORM(A)=   0.10336419D+01
 Iteration Nr.   5
 **********************
 DD1Dir will call FoFMem   1 times, MxPair=        20
 NAB=    10 NAA=     0 NBB=     0.
 A-vector RMS=  2.3390487D-05 Max=  2.0264710D-04 conv= 1.00D-08.
 RLE energy=       -0.2882733742
 DE(Corr)= -0.28826863     E(CORR)=     -76.354207062     Delta=-3.42D-05
 NORM(A)=   0.10336636D+01
 Iteration Nr.   6
 **********************
 DD1Dir will call FoFMem   1 times, MxPair=        20
 NAB=    10 NAA=     0 NBB=     0.
 A-vector RMS=  5.0355501D-06 Max=  3.9390382D-05 conv= 1.00D-08.
 RLE energy=       -0.2882703134
 DE(Corr)= -0.28827113     E(CORR)=     -76.354209567     Delta=-2.50D-06
 NORM(A)=   0.10336656D+01
 Iteration Nr.   7
 **********************
 DD1Dir will call FoFMem   1 times, MxPair=        20
 NAB=    10 NAA=     0 NBB=     0.
 A-vector RMS=  1.6687847D-06 Max=  1.1662067D-05 conv= 1.00D-08.
 RLE energy=       -0.2882701660
 DE(Corr)= -0.28827117     E(CORR)=     -76.354209602     Delta=-3.51D-08
 NORM(A)=   0.10336663D+01
 Iteration Nr.   8
 **********************
 DD1Dir will call FoFMem   1 times, MxPair=        20
 NAB=    10 NAA=     0 NBB=     0.
 A-vector RMS=  6.8386282D-07 Max=  5.6170895D-06 conv= 1.00D-08.
 RLE energy=       -0.2882708551
 DE(Corr)= -0.28827097     E(CORR)=     -76.354209402     Delta= 2.00D-07
 NORM(A)=   0.10336666D+01
 Iteration Nr.   9
 **********************
 DD1Dir will call FoFMem   1 times, MxPair=        20
 NAB=    10 NAA=     0 NBB=     0.
 A-vector RMS=  1.5478056D-07 Max=  1.0592247D-06 conv= 1.00D-08.
 RLE energy=       -0.2882709022
 DE(Corr)= -0.28827093     E(CORR)=     -76.354209359     Delta= 4.38D-08
 NORM(A)=   0.10336668D+01
 Iteration Nr.  10
 **********************
 DD1Dir will call FoFMem   1 times, MxPair=        20
 NAB=    10 NAA=     0 NBB=     0.
 A-vector RMS=  6.4706167D-08 Max=  4.4873639D-07 conv= 1.00D-08.
 RLE energy=       -0.2882709856
 DE(Corr)= -0.28827098     E(CORR)=     -76.354209415     Delta=-5.66D-08
 NORM(A)=   0.10336669D+01
 Iteration Nr.  11
 **********************
 DD1Dir will call FoFMem   1 times, MxPair=        20
 NAB=    10 NAA=     0 NBB=     0.
 A-vector RMS=  1.9071336D-08 Max=  1.9554197D-07 conv= 1.00D-08.
 RLE energy=       -0.2882710108
 DE(Corr)= -0.28827100     E(CORR)=     -76.354209436     Delta=-2.07D-08
 NORM(A)=   0.10336669D+01
 Iteration Nr.  12
 **********************
 DD1Dir will call FoFMem   1 times, MxPair=        20
 NAB=    10 NAA=     0 NBB=     0.
 A-vector RMS=  8.9293278D-09 Max=  7.1875610D-08 conv= 1.00D-08.
 RLE energy=       -0.2882710158
 DE(Corr)= -0.28827101     E(CORR)=     -76.354209446     Delta=-9.93D-09
 NORM(A)=   0.10336669D+01
 Iteration Nr.  13
 **********************
 DD1Dir will call FoFMem   1 times, MxPair=        20
 NAB=    10 NAA=     0 NBB=     0.
 A-vector RMS=  3.3185861D-09 Max=  2.9076432D-08 conv= 1.00D-08.
 RLE energy=       -0.2882710184
 DE(Corr)= -0.28827102     E(CORR)=     -76.354209451     Delta=-4.71D-09
 NORM(A)=   0.10336669D+01
 Iteration Nr.  14
 **********************
 DD1Dir will call FoFMem   1 times, MxPair=        20
 NAB=    10 NAA=     0 NBB=     0.
 A-vector RMS=  1.0890436D-09 Max=  8.7247581D-09 conv= 1.00D-08.
 RLE energy=       -0.2882710184
 DE(Corr)= -0.28827102     E(CORR)=     -76.354209452     Delta=-8.69D-10
 NORM(A)=   0.10336669D+01
 Iteration Nr.  15
 **********************
 DD1Dir will call FoFMem   1 times, MxPair=        20
 NAB=    10 NAA=     0 NBB=     0.
 A-vector RMS=  5.9378161D-10 Max=  4.1376668D-09 conv= 1.00D-08.
 RLE energy=       -0.2882710185
 DE(Corr)= -0.28827102     E(CORR)=     -76.354209451     Delta= 8.97D-12
 NORM(A)=   0.10336669D+01
 CI/CC converged in   15 iterations to DelEn= 8.97D-12 Conv= 1.00D-10 ErrA1= 5.94D-10 Conv= 1.00D-08
 Wavefunction amplitudes converged. E(Corr)=     -76.354209451    
 T1 Diagnostic =     0.00930558
 Largest amplitude= 2.05D-02
 T4(AAA)= -0.21915068D-03
 T4(AAB)= -0.46192270D-02
 T5(AAA)=  0.94596484D-05
 T5(AAB)=  0.14069716D-03
 Time for triples=       17.89 seconds.
 T4(CCSD)= -0.96767554D-02
 T5(CCSD)=  0.30031362D-03
 CCSD(T)= -0.76363585893D+02
 Discarding MO integrals.
 Leave Link  913 at Thu Dec 18 16:35:12 2025, MaxMem= 12079595520 cpu:              46.2 elap:              47.1
 (Enter /uufs/chpc.utah.edu/sys/installdir/gaussian16/C01/AVX2/g16/l601.exe)
 Copying SCF densities to generalized density rwf, IOpCl= 0 IROHF=0.

 **********************************************************************

            Population analysis using the SCF Density.

 **********************************************************************

 Alpha  occ. eigenvalues --  -20.56492  -1.35257  -0.71721  -0.58506  -0.51046
 Alpha virt. eigenvalues --    0.02693   0.04309   0.11418   0.13330   0.15110
 Alpha virt. eigenvalues --    0.15861   0.18516   0.19715   0.20925   0.23790
 Alpha virt. eigenvalues --    0.25724   0.29158   0.35814   0.39047   0.47005
 Alpha virt. eigenvalues --    0.50866   0.54224   0.54753   0.55603   0.61426
 Alpha virt. eigenvalues --    0.63245   0.64750   0.66327   0.66559   0.68538
 Alpha virt. eigenvalues --    0.70622   0.71890   0.76991   0.78988   0.80240
 Alpha virt. eigenvalues --    0.80454   0.84339   0.85417   0.96760   1.12531
 Alpha virt. eigenvalues --    1.13649   1.21088   1.33216   1.43845   1.48275
 Alpha virt. eigenvalues --    1.50906   1.51525   1.52581   1.55428   1.59012
 Alpha virt. eigenvalues --    1.62096   1.63876   1.66328   1.66365   1.68790
 Alpha virt. eigenvalues --    1.70285   1.73415   1.75332   1.76821   1.77847
 Alpha virt. eigenvalues --    1.84189   1.86404   1.89307   1.91414   1.97986
 Alpha virt. eigenvalues --    2.00893   2.03285   2.03676   2.09865   2.20771
 Alpha virt. eigenvalues --    2.21823   2.31396   2.44490   2.63152   2.63588
 Alpha virt. eigenvalues --    2.88961   2.96256   2.99830   3.03912   3.05827
 Alpha virt. eigenvalues --    3.08754   3.27557   3.29951   3.30621   3.49601
 Alpha virt. eigenvalues --    3.58892   3.64612   3.68885   3.72440   3.77483
 Alpha virt. eigenvalues --    3.92221   4.07694   4.16573   4.16618   4.17701
 Alpha virt. eigenvalues --    4.17858   4.23379   4.33231   4.43062   4.58077
 Alpha virt. eigenvalues --    4.72437   4.74855   4.78591   4.78802   4.80727
 Alpha virt. eigenvalues --    4.87973   4.99706   5.24200   5.31462   5.53026
 Alpha virt. eigenvalues --    5.53514   5.86663   5.89093   6.07665   6.23944
 Alpha virt. eigenvalues --    6.83141   6.88336   6.88458   6.91713   7.73204
 Alpha virt. eigenvalues --    7.78438   7.79458   7.82590   7.84390   7.90739
 Alpha virt. eigenvalues --    7.92589   8.02353   8.19008   8.20895   8.53532
 Alpha virt. eigenvalues --    8.63465   8.64376   8.70161   8.79677   8.85252
 Alpha virt. eigenvalues --    8.98416   9.04627   9.21555   9.66028   9.90439
 Alpha virt. eigenvalues --    9.91918   9.95166  10.00031  10.34773  10.46241
 Alpha virt. eigenvalues --   10.66314  11.01252  11.06950  11.08256  11.26642
 Alpha virt. eigenvalues --   11.31750  11.41696  11.71338  11.79608  11.82735
 Alpha virt. eigenvalues --   11.99123  12.19557  12.21187  12.62012  12.73991
 Alpha virt. eigenvalues --   12.83959  12.90599  13.17866  14.01742  14.02176
 Alpha virt. eigenvalues --   14.51241  14.82029  14.90636  15.27476  16.86072
 Alpha virt. eigenvalues --   17.29815  45.51895
          Condensed to atoms (all electrons):
               1          2          3
     1  O    8.028170   0.277704   0.277704
     2  H    0.277704   0.413987   0.016520
     3  H    0.277704   0.016520   0.413987
 Mulliken charges:
               1
     1  O   -0.583578
     2  H    0.291789
     3  H    0.291789
 Sum of Mulliken charges =   0.00000
 Mulliken charges with hydrogens summed into heavy atoms:
               1
     1  O    0.000000
 Electronic spatial extent (au):  <R**2>=             19.4711
 Charge=             -0.0000 electrons
 Dipole moment (field-independent basis, Debye):
    X=             -0.0338    Y=             -0.0000    Z=             -1.9825  Tot=              1.9827
 Quadrupole moment (field-independent basis, Debye-Ang):
   XX=             -7.5540   YY=             -4.2425   ZZ=             -6.2358
   XY=             -0.0000   XZ=              0.0066   YZ=              0.0000
 Traceless Quadrupole moment (field-independent basis, Debye-Ang):
   XX=             -1.5432   YY=              1.7683   ZZ=             -0.2250
   XY=             -0.0000   XZ=              0.0066   YZ=              0.0000
 Octapole moment (field-independent basis, Debye-Ang**2):
  XXX=             -0.1942  YYY=             -0.0000  ZZZ=             -1.1436  XYY=             -0.0578
  XXY=              0.0000  XXZ=             -0.2534  XZZ=             -0.0607  YZZ=             -0.0000
  YYZ=             -1.4032  XYZ=             -0.0000
 Hexadecapole moment (field-independent basis, Debye-Ang**3):
 XXXX=             -6.7228 YYYY=             -5.9414 ZZZZ=             -7.2181 XXXY=             -0.0000
 XXXZ=             -0.0130 YYYX=              0.0000 YYYZ=              0.0000 ZZZX=             -0.0108
 ZZZY=              0.0000 XXYY=             -2.4408 XXZZ=             -2.3750 YYZZ=             -1.8390
 XXYZ=              0.0000 YYXZ=             -0.0010 ZZXY=             -0.0000
 N-N= 9.187776844070D+00 E-N=-1.990374955487D+02  KE= 7.599050634516D+01
 Leave Link  601 at Thu Dec 18 16:35:12 2025, MaxMem= 12079595520 cpu:               0.2 elap:               0.2
 (Enter /uufs/chpc.utah.edu/sys/installdir/gaussian16/C01/AVX2/g16/l110.exe)
 Skip step-back as it is equivalent to step-up.
 Leave EnFreq:  IXYZ= 0 JXYZ= 2 IStep= 1.
 Leave Link  110 at Thu Dec 18 16:35:12 2025, MaxMem= 12079595520 cpu:               0.1 elap:               0.2
 (Enter /uufs/chpc.utah.edu/sys/installdir/gaussian16/C01/AVX2/g16/l301.exe)
 Standard basis: Aug-CC-pVQZ (5D, 7F)
 Ernie: Thresh=  0.10000D-02 Tol=  0.10000D-17 Strict=F.
 Ernie:  1 primitive shells out of 70 were deleted.
   172 basis functions,   240 primitive gaussians,   215 cartesian basis functions
     5 alpha electrons        5 beta electrons
       nuclear repulsion energy         9.1886790740 Hartrees.
 IExCor=    0 DFT=F Ex=HF Corr=None ExCW=0 ScaHFX=  1.000000
 ScaDFX=  1.000000  1.000000  1.000000  1.000000 ScalE2=  1.000000  1.000000
 IRadAn=      5 IRanWt=     -1 IRanGd=            0 ICorTp=0 IEmpDi=  4
 NAtoms=    3 NActive=    3 NUniq=    3 SFac= 1.00D+00 NAtFMM=   60 NAOKFM=F Big=F
 Integral buffers will be    131072 words long.
 Raffenetti 1 integral format.
 Two-electron integral symmetry is turned off.
 Leave Link  301 at Thu Dec 18 16:35:13 2025, MaxMem= 12079595520 cpu:               0.1 elap:               0.1
 (Enter /uufs/chpc.utah.edu/sys/installdir/gaussian16/C01/AVX2/g16/l302.exe)
 NPDir=0 NMtPBC=     1 NCelOv=     1 NCel=       1 NClECP=     1 NCelD=      1
         NCelK=      1 NCelE2=     1 NClLst=     1 CellRange=     0.0.
 One-electron integrals computed using PRISM.
 NBasis=   172 RedAO= T EigKep=  8.64D-05  NBF=   172
 NBsUse=   172 1.00D-06 EigRej= -1.00D+00 NBFU=   172
 Leave Link  302 at Thu Dec 18 16:35:13 2025, MaxMem= 12079595520 cpu:               0.1 elap:               0.1
 (Enter /uufs/chpc.utah.edu/sys/installdir/gaussian16/C01/AVX2/g16/l303.exe)
 DipDrv:  MaxL=1.
 Leave Link  303 at Thu Dec 18 16:35:13 2025, MaxMem= 12079595520 cpu:               0.0 elap:               0.0
 (Enter /uufs/chpc.utah.edu/sys/installdir/gaussian16/C01/AVX2/g16/l401.exe)
 Initial guess from the checkpoint file:  "h2o_ccsdt_sp.chk"
 B after Tr=     0.000000    0.015118   -0.000000
         Rot=    0.999996    0.002767    0.000000   -0.000000 Ang=   0.32 deg.
 Guess basis will be translated and rotated to current coordinates.
 JPrj=2 DoOrth=T DoCkMO=T.
 Leave Link  401 at Thu Dec 18 16:35:13 2025, MaxMem= 12079595520 cpu:               0.1 elap:               0.1
 (Enter /uufs/chpc.utah.edu/sys/installdir/gaussian16/C01/AVX2/g16/l502.exe)
 Keep R1 ints in memory in canonical form, NReq=115724081.
 FoFCou: FMM=F IPFlag=           0 FMFlag=           0 FMFlg1=           0
         NFxFlg=           0 DoJE=F BraDBF=F KetDBF=F FulRan=T
         wScrn=  0.000000 ICntrl=       600 IOpCl=  0 I1Cent=           0 NGrid=           0
         NMat0=    1 NMatS0=  14878 NMatT0=    0 NMatD0=    1 NMtDS0=    0 NMtDT0=    0
 Symmetry not used in FoFCou.
 Two-electron integral symmetry not used.
 Closed shell SCF:
 Using DIIS extrapolation, IDIIS=  1040.
 NGot= 12079595520 LenX= 11968815508 LenY= 11968768842
 Requested convergence on RMS density matrix=1.00D-12 within 200 cycles.
 Requested convergence on MAX density matrix=1.00D-10.
 Requested convergence on             energy=1.00D-10.
 No special actions if energy rises.

 Cycle   1  Pass 1  IDiag  1:
 E= -76.0657785108108    
 DIIS: error= 1.23D-03 at cycle   1 NSaved=   1.
 NSaved= 1 IEnMin= 1 EnMin= -76.0657785108108     IErMin= 1 ErrMin= 1.23D-03
 ErrMax= 1.23D-03  0.00D+00 EMaxC= 1.00D-01 BMatC= 6.65D-05 BMatP= 6.65D-05
 IDIUse=3 WtCom= 9.88D-01 WtEn= 1.23D-02
 Coeff-Com:  0.100D+01
 Coeff-En:   0.100D+01
 Coeff:      0.100D+01
 Gap=     0.968 Goal=   None    Shift=    0.000
 GapD=    0.968 DampG=2.000 DampE=1.000 DampFc=2.0000 IDamp=-1.
 RMSDP=3.13D-05 MaxDP=1.19D-03              OVMax= 2.12D-03

 Cycle   2  Pass 1  IDiag  1:
 E= -76.0658140299726     Delta-E=       -0.000035519162 Rises=F Damp=F
 DIIS: error= 2.01D-04 at cycle   2 NSaved=   2.
 NSaved= 2 IEnMin= 2 EnMin= -76.0658140299726     IErMin= 2 ErrMin= 2.01D-04
 ErrMax= 2.01D-04  0.00D+00 EMaxC= 1.00D-01 BMatC= 1.91D-06 BMatP= 6.65D-05
 IDIUse=3 WtCom= 9.98D-01 WtEn= 2.01D-03
 Coeff-Com: -0.297D-01 0.103D+01
 Coeff-En:   0.000D+00 0.100D+01
 Coeff:     -0.296D-01 0.103D+01
 Gap=     0.537 Goal=   None    Shift=    0.000
 RMSDP=4.64D-06 MaxDP=1.73D-04 DE=-3.55D-05 OVMax= 7.29D-04

 Cycle   3  Pass 1  IDiag  1:
 E= -76.0658163133688     Delta-E=       -0.000002283396 Rises=F Damp=F
 DIIS: error= 9.86D-05 at cycle   3 NSaved=   3.
 NSaved= 3 IEnMin= 3 EnMin= -76.0658163133688     IErMin= 3 ErrMin= 9.86D-05
 ErrMax= 9.86D-05  0.00D+00 EMaxC= 1.00D-01 BMatC= 1.45D-07 BMatP= 1.91D-06
 IDIUse=1 WtCom= 1.00D+00 WtEn= 0.00D+00
 Coeff-Com: -0.197D-01-0.730D-01 0.109D+01
 Coeff:     -0.197D-01-0.730D-01 0.109D+01
 Gap=     0.537 Goal=   None    Shift=    0.000
 RMSDP=1.81D-06 MaxDP=4.96D-05 DE=-2.28D-06 OVMax= 3.06D-04

 Cycle   4  Pass 1  IDiag  1:
 E= -76.0658166265269     Delta-E=       -0.000000313158 Rises=F Damp=F
 DIIS: error= 2.56D-05 at cycle   4 NSaved=   4.
 NSaved= 4 IEnMin= 4 EnMin= -76.0658166265269     IErMin= 4 ErrMin= 2.56D-05
 ErrMax= 2.56D-05  0.00D+00 EMaxC= 1.00D-01 BMatC= 1.47D-08 BMatP= 1.45D-07
 IDIUse=1 WtCom= 1.00D+00 WtEn= 0.00D+00
 Coeff-Com:  0.653D-02-0.539D-01-0.283D+00 0.133D+01
 Coeff:      0.653D-02-0.539D-01-0.283D+00 0.133D+01
 Gap=     0.537 Goal=   None    Shift=    0.000
 RMSDP=9.52D-07 MaxDP=2.66D-05 DE=-3.13D-07 OVMax= 1.31D-04

 Cycle   5  Pass 1  IDiag  1:
 E= -76.0658166646871     Delta-E=       -0.000000038160 Rises=F Damp=F
 DIIS: error= 2.97D-06 at cycle   5 NSaved=   5.
 NSaved= 5 IEnMin= 5 EnMin= -76.0658166646871     IErMin= 5 ErrMin= 2.97D-06
 ErrMax= 2.97D-06  0.00D+00 EMaxC= 1.00D-01 BMatC= 5.17D-10 BMatP= 1.47D-08
 IDIUse=1 WtCom= 1.00D+00 WtEn= 0.00D+00
 Coeff-Com:  0.721D-03 0.943D-03-0.416D-01 0.436D-01 0.996D+00
 Coeff:      0.721D-03 0.943D-03-0.416D-01 0.436D-01 0.996D+00
 Gap=     0.537 Goal=   None    Shift=    0.000
 RMSDP=1.23D-07 MaxDP=4.15D-06 DE=-3.82D-08 OVMax= 1.42D-05

 Cycle   6  Pass 1  IDiag  1:
 E= -76.0658166654491     Delta-E=       -0.000000000762 Rises=F Damp=F
 DIIS: error= 1.06D-06 at cycle   6 NSaved=   6.
 NSaved= 6 IEnMin= 6 EnMin= -76.0658166654491     IErMin= 6 ErrMin= 1.06D-06
 ErrMax= 1.06D-06  0.00D+00 EMaxC= 1.00D-01 BMatC= 1.14D-10 BMatP= 5.17D-10
 IDIUse=1 WtCom= 1.00D+00 WtEn= 0.00D+00
 Coeff-Com: -0.739D-03 0.866D-02 0.250D-01-0.170D+00 0.280D+00 0.857D+00
 Coeff:     -0.739D-03 0.866D-02 0.250D-01-0.170D+00 0.280D+00 0.857D+00
 Gap=     0.537 Goal=   None    Shift=    0.000
 RMSDP=4.48D-08 MaxDP=1.48D-06 DE=-7.62D-10 OVMax= 5.51D-06

 Cycle   7  Pass 1  IDiag  1:
 E= -76.0658166655740     Delta-E=       -0.000000000125 Rises=F Damp=F
 DIIS: error= 2.79D-07 at cycle   7 NSaved=   7.
 NSaved= 7 IEnMin= 7 EnMin= -76.0658166655740     IErMin= 7 ErrMin= 2.79D-07
 ErrMax= 2.79D-07  0.00D+00 EMaxC= 1.00D-01 BMatC= 3.48D-12 BMatP= 1.14D-10
 IDIUse=1 WtCom= 1.00D+00 WtEn= 0.00D+00
 Coeff-Com:  0.132D-03-0.159D-02-0.724D-02 0.462D-01-0.131D+00-0.227D+00
 Coeff-Com:  0.132D+01
 Coeff:      0.132D-03-0.159D-02-0.724D-02 0.462D-01-0.131D+00-0.227D+00
 Coeff:      0.132D+01
 Gap=     0.537 Goal=   None    Shift=    0.000
 RMSDP=1.28D-08 MaxDP=4.14D-07 DE=-1.25D-10 OVMax= 1.69D-06

 Cycle   8  Pass 1  IDiag  1:
 E= -76.0658166655810     Delta-E=       -0.000000000007 Rises=F Damp=F
 DIIS: error= 4.25D-08 at cycle   8 NSaved=   8.
 NSaved= 8 IEnMin= 8 EnMin= -76.0658166655810     IErMin= 8 ErrMin= 4.25D-08
 ErrMax= 4.25D-08  0.00D+00 EMaxC= 1.00D-01 BMatC= 4.78D-14 BMatP= 3.48D-12
 IDIUse=1 WtCom= 1.00D+00 WtEn= 0.00D+00
 Coeff-Com: -0.172D-04 0.255D-03 0.100D-02-0.726D-02 0.264D-01 0.360D-01
 Coeff-Com: -0.337D+00 0.128D+01
 Coeff:     -0.172D-04 0.255D-03 0.100D-02-0.726D-02 0.264D-01 0.360D-01
 Coeff:     -0.337D+00 0.128D+01
 Gap=     0.537 Goal=   None    Shift=    0.000
 RMSDP=1.51D-09 MaxDP=4.33D-08 DE=-7.03D-12 OVMax= 2.14D-07

 Cycle   9  Pass 1  IDiag  1:
 E= -76.0658166655811     Delta-E=       -0.000000000000 Rises=F Damp=F
 DIIS: error= 4.76D-09 at cycle   9 NSaved=   9.
 NSaved= 9 IEnMin= 9 EnMin= -76.0658166655811     IErMin= 9 ErrMin= 4.76D-09
 ErrMax= 4.76D-09  0.00D+00 EMaxC= 1.00D-01 BMatC= 6.28D-16 BMatP= 4.78D-14
 IDIUse=1 WtCom= 1.00D+00 WtEn= 0.00D+00
 Coeff-Com:  0.322D-05-0.482D-04-0.216D-03 0.149D-02-0.568D-02-0.716D-02
 Coeff-Com:  0.779D-01-0.366D+00 0.130D+01
 Coeff:      0.322D-05-0.482D-04-0.216D-03 0.149D-02-0.568D-02-0.716D-02
 Coeff:      0.779D-01-0.366D+00 0.130D+01
 Gap=     0.537 Goal=   None    Shift=    0.000
 RMSDP=1.68D-10 MaxDP=4.23D-09 DE=-9.95D-14 OVMax= 1.84D-08

 Cycle  10  Pass 1  IDiag  1:
 E= -76.0658166655813     Delta-E=       -0.000000000000 Rises=F Damp=F
 DIIS: error= 5.24D-10 at cycle  10 NSaved=  10.
 NSaved=10 IEnMin=10 EnMin= -76.0658166655813     IErMin=10 ErrMin= 5.24D-10
 ErrMax= 5.24D-10  0.00D+00 EMaxC= 1.00D-01 BMatC= 1.32D-17 BMatP= 6.28D-16
 IDIUse=1 WtCom= 1.00D+00 WtEn= 0.00D+00
 Coeff-Com: -0.336D-06 0.493D-05 0.267D-04-0.170D-03 0.656D-03 0.808D-03
 Coeff-Com: -0.952D-02 0.513D-01-0.283D+00 0.124D+01
 Coeff:     -0.336D-06 0.493D-05 0.267D-04-0.170D-03 0.656D-03 0.808D-03
 Coeff:     -0.952D-02 0.513D-01-0.283D+00 0.124D+01
 Gap=     0.537 Goal=   None    Shift=    0.000
 RMSDP=3.60D-11 MaxDP=1.49D-09 DE=-2.13D-13 OVMax= 2.52D-09

 Cycle  11  Pass 1  IDiag  1:
 E= -76.0658166655810     Delta-E=        0.000000000000 Rises=F Damp=F
 DIIS: error= 1.07D-10 at cycle  11 NSaved=  11.
 NSaved=11 IEnMin=10 EnMin= -76.0658166655813     IErMin=11 ErrMin= 1.07D-10
 ErrMax= 1.07D-10  0.00D+00 EMaxC= 1.00D-01 BMatC= 5.65D-19 BMatP= 1.32D-17
 IDIUse=1 WtCom= 1.00D+00 WtEn= 0.00D+00
 Coeff-Com: -0.788D-07 0.115D-05 0.507D-05-0.349D-04 0.130D-03 0.167D-03
 Coeff-Com: -0.174D-02 0.752D-02-0.172D-01-0.109D+00 0.112D+01
 Coeff:     -0.788D-07 0.115D-05 0.507D-05-0.349D-04 0.130D-03 0.167D-03
 Coeff:     -0.174D-02 0.752D-02-0.172D-01-0.109D+00 0.112D+01
 Gap=     0.537 Goal=   None    Shift=    0.000
 RMSDP=4.92D-12 MaxDP=1.28D-10 DE= 2.84D-13 OVMax= 6.81D-10

 Cycle  12  Pass 1  IDiag  1:
 E= -76.0658166655813     Delta-E=       -0.000000000000 Rises=F Damp=F
 DIIS: error= 3.42D-11 at cycle  12 NSaved=  12.
 NSaved=12 IEnMin=10 EnMin= -76.0658166655813     IErMin=12 ErrMin= 3.42D-11
 ErrMax= 3.42D-11  0.00D+00 EMaxC= 1.00D-01 BMatC= 5.83D-20 BMatP= 5.65D-19
 IDIUse=1 WtCom= 1.00D+00 WtEn= 0.00D+00
 Coeff-Com:  0.481D-07-0.700D-06-0.347D-05 0.228D-04-0.865D-04-0.107D-03
 Coeff-Com:  0.120D-02-0.590D-02 0.248D-01-0.462D-01-0.409D+00 0.143D+01
 Coeff:      0.481D-07-0.700D-06-0.347D-05 0.228D-04-0.865D-04-0.107D-03
 Coeff:      0.120D-02-0.590D-02 0.248D-01-0.462D-01-0.409D+00 0.143D+01
 Gap=     0.537 Goal=   None    Shift=    0.000
 RMSDP=2.84D-12 MaxDP=1.05D-10 DE=-2.13D-13 OVMax= 3.15D-10

 Cycle  13  Pass 1  IDiag  1:
 E= -76.0658166655811     Delta-E=        0.000000000000 Rises=F Damp=F
 DIIS: error= 4.49D-12 at cycle  13 NSaved=  13.
 NSaved=13 IEnMin=10 EnMin= -76.0658166655813     IErMin=13 ErrMin= 4.49D-12
 ErrMax= 4.49D-12  0.00D+00 EMaxC= 1.00D-01 BMatC= 1.28D-21 BMatP= 5.83D-20
 IDIUse=1 WtCom= 1.00D+00 WtEn= 0.00D+00
 Coeff-Com: -0.976D-08 0.144D-06 0.728D-06-0.475D-05 0.182D-04 0.225D-04
 Coeff-Com: -0.255D-03 0.130D-02-0.610D-02 0.172D-01 0.627D-01-0.374D+00
 Coeff-Com:  0.130D+01
 Coeff:     -0.976D-08 0.144D-06 0.728D-06-0.475D-05 0.182D-04 0.225D-04
 Coeff:     -0.255D-03 0.130D-02-0.610D-02 0.172D-01 0.627D-01-0.374D+00
 Coeff:      0.130D+01
 Gap=     0.537 Goal=   None    Shift=    0.000
 RMSDP=4.19D-13 MaxDP=1.48D-11 DE= 1.56D-13 OVMax= 4.09D-11

 SCF Done:  E(RHF) =  -76.0658166656     A.U. after   13 cycles
            NFock= 13  Conv=0.42D-12     -V/T= 2.0010
 KE= 7.599106957960D+01 PE=-1.990394451604D+02 EE= 3.779387984126D+01
 Leave Link  502 at Thu Dec 18 16:35:22 2025, MaxMem= 12079595520 cpu:               8.2 elap:               8.4
 (Enter /uufs/chpc.utah.edu/sys/installdir/gaussian16/C01/AVX2/g16/l801.exe)
 Windowed orbitals will be sorted by symmetry type.
 ExpMin= 2.36D-02 ExpMax= 6.14D+04 ExpMxC= 5.91D+02 IAcc=3 IRadAn=         5 AccDes= 0.00D+00
 HarFok:  IExCor=  205 AccDes= 0.00D+00 IRadAn=         5 IDoV=-2 UseB2=F ITyADJ=14
 ICtDFT= 12500011 ScaDFX=  1.000000  1.000000  1.000000  1.000000
 Largest valence mixing into a core orbital is  9.99D-05
 Largest core mixing into a valence orbital is  1.69D-05
 Range of M.O.s used for correlation:     2   172
 NBasis=   172 NAE=     5 NBE=     5 NFC=     1 NFV=     0
 NROrb=    171 NOA=     4 NOB=     4 NVA=   167 NVB=   167

 **** Warning!!: The largest alpha MO coefficient is  0.26671680D+02

 Leave Link  801 at Thu Dec 18 16:35:22 2025, MaxMem= 12079595520 cpu:               0.1 elap:               0.2
 (Enter /uufs/chpc.utah.edu/sys/installdir/gaussian16/C01/AVX2/g16/l804.exe)
 Closed-shell transformation, MDV= 12079595520 ITran=4 ISComp=1.
 Semi-Direct transformation.
 ModeAB=           2 MOrb=             4 LenV=   12057469616
 LASXX=      9792567 LTotXX=     9792567 LenRXX=     9792567
 LTotAB=     9963988 MaxLAS=    15882480 LenRXY=    15882480
 NonZer=    19585134 LenScr=    29884416 LnRSAI=           0
 LnScr1=           0 LExtra=           0 Total=     55559463
 MaxDsk=          -1 SrtSym=           F ITran=            4
 DoSDTr:  NPSUse=  1
 JobTyp=0 Pass  1:  I=   1 to   4.
 (rs|ai) integrals will be sorted in core.
 Complete sort for first half transformation.
 First half transformation complete.
 Complete sort for second half transformation.
 Second half transformation complete.
 Spin components of T(2) and E(2):
     alpha-alpha T2 =       0.8188055788D-02 E2=     -0.3361274613D-01
     alpha-beta  T2 =       0.4819185579D-01 E2=     -0.2187498308D+00
     beta-beta   T2 =       0.8188055788D-02 E2=     -0.3361274613D-01
 ANorm=    0.1031779030D+01
 E2 =    -0.2859753231D+00 EUMP2 =    -0.76351791988671D+02
 Leave Link  804 at Thu Dec 18 16:35:33 2025, MaxMem= 12079595520 cpu:              11.3 elap:              11.4
 (Enter /uufs/chpc.utah.edu/sys/installdir/gaussian16/C01/AVX2/g16/l913.exe)
 CIDS:  MDV= 12079595520.
 Frozen-core window:  NFC=   1 NFV=   0.
 IFCWin=0 IBDFC=1 NFBD=     0     0 NFCmp=     0     0 NFFFC=     0     0
 Using DD3R+UMP44R for 1st iteration.
 Using DD4RQ for 2nd and later iterations.
 Keep R2 and R3 ints in memory in canonical form, NReq=226413020.
 FoFCou: FMM=F IPFlag=           0 FMFlag=           0 FMFlg1=           0
         NFxFlg=           0 DoJE=F BraDBF=F KetDBF=F FulRan=T
         wScrn=  0.000000 ICntrl=       600 IOpCl=  0 I1Cent=           0 NGrid=           0
         NMat0=    1 NMatS0=  14878 NMatT0=    0 NMatD0=    1 NMtDS0=    0 NMtDT0=    0
 Symmetry not used in FoFCou.
 Two-electron integral symmetry not used.
 CIDS: In Core Option IDoMem=           1.
 CCSD(T)
 =======
 Iterations= 200 Convergence= 0.100D-09
 Produce multiple copies of IABC intergrals
 Iteration Nr.   1
 **********************
 DD1Dir will call FoFMem   1 times, MxPair=        20
 NAB=    10 NAA=     0 NBB=     0.
 MP4(R+Q)=  0.46707023D-02
 Maximum subspace dimension=  5
 A-vector RMS=  1.8927283D-03 Max=  1.0089505D-02 conv= 1.00D-08.
 RLE energy=       -0.2820801001
 E3=       -0.76291976D-03        EUMP3=      -0.76352554908D+02
 E4(DQ)=   -0.13165697D-03        UMP4(DQ)=   -0.76352686565D+02
 E4(SDQ)=  -0.19625783D-02        UMP4(SDQ)=  -0.76354517487D+02
 VARIATIONAL ENERGIES WITH THE FIRST-ORDER WAVEFUNCTION:
 DE(Corr)= -0.28202632     E(Corr)=     -76.347842983    
 NORM(A)=   0.10310950D+01
 Iteration Nr.   2
 **********************
 DD1Dir will call FoFMem   1 times, MxPair=        20
 NAB=    10 NAA=     0 NBB=     0.
 A-vector RMS=  2.0287178D-04 Max=  1.7345121D-03 conv= 1.00D-08.
 RLE energy=       -0.2879245245
 DE(Corr)= -0.28760536     E(CORR)=     -76.353422027     Delta=-5.58D-03
 NORM(A)=   0.10331538D+01
 Iteration Nr.   3
 **********************
 DD1Dir will call FoFMem   1 times, MxPair=        20
 NAB=    10 NAA=     0 NBB=     0.
 A-vector RMS=  2.6635313D-04 Max=  1.9992517D-03 conv= 1.00D-08.
 RLE energy=       -0.2882336379
 DE(Corr)= -0.28785902     E(CORR)=     -76.353675682     Delta=-2.54D-04
 NORM(A)=   0.10335380D+01
 Iteration Nr.   4
 **********************
 DD1Dir will call FoFMem   1 times, MxPair=        20
 NAB=    10 NAA=     0 NBB=     0.
 A-vector RMS=  4.1447307D-05 Max=  3.4437633D-04 conv= 1.00D-08.
 RLE energy=       -0.2882596545
 DE(Corr)= -0.28823302     E(CORR)=     -76.354049685     Delta=-3.74D-04
 NORM(A)=   0.10336425D+01
 Iteration Nr.   5
 **********************
 DD1Dir will call FoFMem   1 times, MxPair=        20
 NAB=    10 NAA=     0 NBB=     0.
 A-vector RMS=  2.3389519D-05 Max=  2.0262829D-04 conv= 1.00D-08.
 RLE energy=       -0.2882719864
[...]
 NORM(A)=   0.10339006D+01
 Iteration Nr.   5
 **********************
 DD1Dir will call FoFMem   1 times, MxPair=        20
 NAB=    10 NAA=     0 NBB=     0.
 A-vector RMS=  2.3834858D-05 Max=  2.0601353D-04 conv= 1.00D-08.
 RLE energy=       -0.2887354158
 DE(Corr)= -0.28873049     E(CORR)=     -76.354077880     Delta=-3.53D-05
 NORM(A)=   0.10339230D+01
 Iteration Nr.   6
 **********************
 DD1Dir will call FoFMem   1 times, MxPair=        20
 NAB=    10 NAA=     0 NBB=     0.
 A-vector RMS=  5.1399998D-06 Max=  3.9962397D-05 conv= 1.00D-08.
 RLE energy=       -0.2887322546
 DE(Corr)= -0.28873310     E(CORR)=     -76.354080493     Delta=-2.61D-06
 NORM(A)=   0.10339251D+01
 Iteration Nr.   7
 **********************
 DD1Dir will call FoFMem   1 times, MxPair=        20
 NAB=    10 NAA=     0 NBB=     0.
 A-vector RMS=  1.7108851D-06 Max=  1.1747717D-05 conv= 1.00D-08.
 RLE energy=       -0.2887321194
 DE(Corr)= -0.28873315     E(CORR)=     -76.354080536     Delta=-4.33D-08
 NORM(A)=   0.10339257D+01
 Iteration Nr.   8
 **********************
 DD1Dir will call FoFMem   1 times, MxPair=        20
 NAB=    10 NAA=     0 NBB=     0.
 A-vector RMS=  7.0222894D-07 Max=  5.6936051D-06 conv= 1.00D-08.
 RLE energy=       -0.2887328203
 DE(Corr)= -0.28873294     E(CORR)=     -76.354080327     Delta= 2.09D-07
 NORM(A)=   0.10339261D+01
 Iteration Nr.   9
 **********************
 DD1Dir will call FoFMem   1 times, MxPair=        20
 NAB=    10 NAA=     0 NBB=     0.
 A-vector RMS=  1.6052788D-07 Max=  1.0932475D-06 conv= 1.00D-08.
 RLE energy=       -0.2887328693
 DE(Corr)= -0.28873289     E(CORR)=     -76.354080282     Delta= 4.52D-08
 NORM(A)=   0.10339263D+01
 Iteration Nr.  10
 **********************
 DD1Dir will call FoFMem   1 times, MxPair=        20
 NAB=    10 NAA=     0 NBB=     0.
 A-vector RMS=  6.7304063D-08 Max=  4.7226745D-07 conv= 1.00D-08.
 RLE energy=       -0.2887329564
 DE(Corr)= -0.28873295     E(CORR)=     -76.354080340     Delta=-5.86D-08
 NORM(A)=   0.10339264D+01
 Iteration Nr.  11
 **********************
 DD1Dir will call FoFMem   1 times, MxPair=        20
 NAB=    10 NAA=     0 NBB=     0.
 A-vector RMS=  1.9735116D-08 Max=  2.0253147D-07 conv= 1.00D-08.
 RLE energy=       -0.2887329827
 DE(Corr)= -0.28873297     E(CORR)=     -76.354080362     Delta=-2.17D-08
 NORM(A)=   0.10339264D+01
 Iteration Nr.  12
 **********************
 DD1Dir will call FoFMem   1 times, MxPair=        20
 NAB=    10 NAA=     0 NBB=     0.
 A-vector RMS=  9.3313613D-09 Max=  7.5548129D-08 conv= 1.00D-08.
 RLE energy=       -0.2887329879
 DE(Corr)= -0.28873298     E(CORR)=     -76.354080372     Delta=-1.04D-08
 NORM(A)=   0.10339264D+01
 Iteration Nr.  13
 **********************
 DD1Dir will call FoFMem   1 times, MxPair=        20
 NAB=    10 NAA=     0 NBB=     0.
 A-vector RMS=  3.4132627D-09 Max=  3.0590611D-08 conv= 1.00D-08.
 RLE energy=       -0.2887329906
 DE(Corr)= -0.28873299     E(CORR)=     -76.354080377     Delta=-4.95D-09
 NORM(A)=   0.10339264D+01
 Iteration Nr.  14
 **********************
 DD1Dir will call FoFMem   1 times, MxPair=        20
 NAB=    10 NAA=     0 NBB=     0.
 A-vector RMS=  1.1285249D-09 Max=  9.2222049D-09 conv= 1.00D-08.
 RLE energy=       -0.2887329906
 DE(Corr)= -0.28873299     E(CORR)=     -76.354080378     Delta=-9.26D-10
 NORM(A)=   0.10339264D+01
 Iteration Nr.  15
 **********************
 DD1Dir will call FoFMem   1 times, MxPair=        20
 NAB=    10 NAA=     0 NBB=     0.
 A-vector RMS=  6.2860132D-10 Max=  4.2776196D-09 conv= 1.00D-08.
 RLE energy=       -0.2887329904
 DE(Corr)= -0.28873299     E(CORR)=     -76.354080378     Delta= 2.39D-11
 NORM(A)=   0.10339264D+01
 CI/CC converged in   15 iterations to DelEn= 2.39D-11 Conv= 1.00D-10 ErrA1= 6.29D-10 Conv= 1.00D-08
 Wavefunction amplitudes converged. E(Corr)=     -76.354080378    
 T1 Diagnostic =     0.00941822
 Largest amplitude= 2.13D-02
 T4(AAA)= -0.22027312D-03
 T4(AAB)= -0.46562570D-02
 T5(AAA)=  0.96116051D-05
 T5(AAB)=  0.14344210D-03
 Time for triples=       17.77 seconds.
 T4(CCSD)= -0.97530602D-02
 T5(CCSD)=  0.30610741D-03
 CCSD(T)= -0.76363527331D+02
 Discarding MO integrals.
 Leave Link  913 at Thu Dec 18 17:05:24 2025, MaxMem= 12079595520 cpu:              45.9 elap:              46.8
 (Enter /uufs/chpc.utah.edu/sys/installdir/gaussian16/C01/AVX2/g16/l601.exe)
 Copying SCF densities to generalized density rwf, IOpCl= 0 IROHF=0.

 **********************************************************************

            Population analysis using the SCF Density.

 **********************************************************************

 Alpha  occ. eigenvalues --  -20.56640  -1.35010  -0.71207  -0.58571  -0.51024
 Alpha virt. eigenvalues --    0.02682   0.04311   0.11402   0.13373   0.15112
 Alpha virt. eigenvalues --    0.15877   0.18469   0.19698   0.20943   0.23682
 Alpha virt. eigenvalues --    0.25685   0.29162   0.35689   0.38922   0.46946
 Alpha virt. eigenvalues --    0.50883   0.54186   0.54765   0.55649   0.61437
 Alpha virt. eigenvalues --    0.63254   0.64702   0.66352   0.66606   0.68417
 Alpha virt. eigenvalues --    0.70675   0.71897   0.76939   0.78776   0.80038
 Alpha virt. eigenvalues --    0.80260   0.84309   0.85416   0.96879   1.12203
 Alpha virt. eigenvalues --    1.13638   1.20671   1.33189   1.44014   1.48117
 Alpha virt. eigenvalues --    1.50944   1.51076   1.52721   1.55372   1.59068
 Alpha virt. eigenvalues --    1.62056   1.63596   1.66147   1.66516   1.68953
 Alpha virt. eigenvalues --    1.70255   1.73755   1.75147   1.76576   1.77386
 Alpha virt. eigenvalues --    1.84329   1.86546   1.89451   1.91627   1.98309
 Alpha virt. eigenvalues --    2.00834   2.03483   2.04115   2.10169   2.20500
 Alpha virt. eigenvalues --    2.21593   2.31219   2.43138   2.62068   2.62670
 Alpha virt. eigenvalues --    2.88253   2.95251   2.99123   3.04064   3.05257
 Alpha virt. eigenvalues --    3.08258   3.26154   3.30084   3.30964   3.48541
 Alpha virt. eigenvalues --    3.58757   3.63968   3.68648   3.71545   3.77609
 Alpha virt. eigenvalues --    3.92421   4.07869   4.16755   4.16759   4.17824
 Alpha virt. eigenvalues --    4.17867   4.23343   4.32585   4.43408   4.57604
 Alpha virt. eigenvalues --    4.72286   4.74240   4.77387   4.77511   4.80863
 Alpha virt. eigenvalues --    4.87392   4.99308   5.23245   5.31201   5.50997
 Alpha virt. eigenvalues --    5.52561   5.84652   5.87982   6.06665   6.22237
 Alpha virt. eigenvalues --    6.81782   6.88128   6.88387   6.90019   7.71928
 Alpha virt. eigenvalues --    7.75658   7.78506   7.82063   7.82417   7.88683
 Alpha virt. eigenvalues --    7.92318   8.01694   8.16107   8.18855   8.52422
 Alpha virt. eigenvalues --    8.62002   8.65334   8.69310   8.76923   8.83735
 Alpha virt. eigenvalues --    8.98836   9.03397   9.21358   9.66616   9.88585
 Alpha virt. eigenvalues --    9.90083   9.92348   9.97110  10.30359  10.43359
 Alpha virt. eigenvalues --   10.70284  11.01313  11.08356  11.08863  11.26953
 Alpha virt. eigenvalues --   11.29728  11.40354  11.70611  11.78614  11.82839
 Alpha virt. eigenvalues --   11.97749  12.18293  12.19791  12.60272  12.72086
 Alpha virt. eigenvalues --   12.80399  12.88532  13.16843  13.95184  13.99135
 Alpha virt. eigenvalues --   14.47090  14.76402  14.86665  15.20743  16.79832
 Alpha virt. eigenvalues --   17.25483  45.45529
          Condensed to atoms (all electrons):
               1          2          3
     1  O    8.039470   0.275761   0.275761
     2  H    0.275761   0.411426   0.017316
     3  H    0.275761   0.017316   0.411426
 Mulliken charges:
               1
     1  O   -0.590992
     2  H    0.295496
     3  H    0.295496
 Sum of Mulliken charges =  -0.00000
 Mulliken charges with hydrogens summed into heavy atoms:
               1
     1  O   -0.000000
 Electronic spatial extent (au):  <R**2>=             19.5407
 Charge=             -0.0000 electrons
 Dipole moment (field-independent basis, Debye):
    X=              0.0000    Y=             -0.0000    Z=             -2.0031  Tot=              2.0031
 Quadrupole moment (field-independent basis, Debye-Ang):
   XX=             -7.5664   YY=             -4.2700   ZZ=             -6.2024
   XY=             -0.0000   XZ=             -0.0000   YZ=              0.0000
 Traceless Quadrupole moment (field-independent basis, Debye-Ang):
   XX=             -1.5535   YY=              1.7429   ZZ=             -0.1894
   XY=             -0.0000   XZ=             -0.0000   YZ=              0.0000
 Octapole moment (field-independent basis, Debye-Ang**2):
  XXX=              0.0000  YYY=             -0.0000  ZZZ=             -1.1205  XYY=             -0.0000
  XXY=             -0.0000  XXZ=             -0.2364  XZZ=             -0.0000  YZZ=             -0.0000
  YYZ=             -1.4105  XYZ=             -0.0000
 Hexadecapole moment (field-independent basis, Debye-Ang**3):
 XXXX=             -6.7344 YYYY=             -6.0135 ZZZZ=             -7.2581 XXXY=              0.0000
 XXXZ=             -0.0000 YYYX=              0.0000 YYYZ=              0.0000 ZZZX=             -0.0000
 ZZZY=             -0.0000 XXYY=             -2.4531 XXZZ=             -2.3878 YYZZ=             -1.8315
 XXYZ=              0.0000 YYXZ=             -0.0000 ZZXY=              0.0000
 N-N= 9.131781391498D+00 E-N=-1.989136623768D+02  KE= 7.596842423728D+01
 Leave Link  601 at Thu Dec 18 17:05:24 2025, MaxMem= 12079595520 cpu:               0.2 elap:               0.2
 (Enter /uufs/chpc.utah.edu/sys/installdir/gaussian16/C01/AVX2/g16/l110.exe)
 Numerical evaluation of force constants complete.
 Leave Link  110 at Thu Dec 18 17:05:25 2025, MaxMem= 12079595520 cpu:               0.1 elap:               0.2
 (Enter /uufs/chpc.utah.edu/sys/installdir/gaussian16/C01/AVX2/g16/l716.exe)
 Full mass-weighted force constant matrix:
 Low frequencies --- -128.7103 -126.8291 -117.8230   -1.2046    0.7613   21.5865
 Low frequencies --- 1646.9354 3844.5397 3954.5945
 Diagonal vibrational polarizability:
        0.0000000       0.0000000       0.0000000
 Harmonic frequencies (cm**-1), IR intensities (KM/Mole), Raman scattering
 activities (A**4/AMU), depolarization ratios for plane and unpolarized
 incident light, reduced masses (AMU), force constants (mDyne/A),
 and normal coordinates:
                      1                      2                      3
                     A1                     A1                     B2
 Frequencies --   1646.9349              3844.5396              3954.5945
 Red. masses --      1.0828                 1.0450                 1.0818
 Frc consts  --      1.7305                 9.1005                 9.9676
 IR Inten    --      0.0000                 0.0000                 0.0000
  Atom  AN      X      Y      Z        X      Y      Z        X      Y      Z
     1   8    -0.00   0.00  -0.07     0.00   0.00   0.05    -0.00  -0.07   0.00
     2   1     0.00   0.43   0.56     0.00   0.59  -0.40     0.00   0.56  -0.43
     3   1     0.00  -0.43   0.56    -0.00  -0.59  -0.40     0.00   0.56   0.43

 -------------------
 - Thermochemistry -
 -------------------
 Temperature   298.150 Kelvin.  Pressure   1.00000 Atm.
 Atom     1 has atomic number  8 and mass  15.99491
 Atom     2 has atomic number  1 and mass   1.00783
 Atom     3 has atomic number  1 and mass   1.00783
 Molecular mass:    18.01056 amu.
 Principal axes and moments of inertia in atomic units:
                           1         2         3
     Eigenvalues --     2.20264   4.12482   6.32746
           X            0.00000   0.00000   1.00000
           Y            1.00000   0.00000   0.00000
           Z           -0.00000   1.00000  -0.00000
 This molecule is an asymmetric top.
 Rotational symmetry number  2.
 Rotational temperatures (Kelvin)     39.32276    20.99825    13.68858
 Rotational constants (GHZ):         819.35340   437.53248   285.22377
 Zero-point vibrational energy      56500.0 (Joules/Mol)
                                   13.50383 (Kcal/Mol)
 Vibrational temperatures:   2369.57  5531.44  5689.78
          (Kelvin)
 
 Zero-point correction=                           0.021520 (Hartree/Particle)
 Thermal correction to Energy=                    0.024355
 Thermal correction to Enthalpy=                  0.025299
 Thermal correction to Gibbs Free Energy=         0.003887
 Sum of electronic and zero-point Energies=            -76.342066
 Sum of electronic and thermal Energies=               -76.339231
 Sum of electronic and thermal Enthalpies=             -76.338287
 Sum of electronic and thermal Free Energies=          -76.359699
 
                     E (Thermal)             CV                S
                      KCal/Mol        Cal/Mol-Kelvin    Cal/Mol-Kelvin
 Total                   15.283              6.006             45.066
 Electronic               0.000              0.000              0.000
 Translational            0.889              2.981             34.608
 Rotational               0.889              2.981             10.451
 Vibrational             13.505              0.044              0.006
                       Q            Log10(Q)             Ln(Q)
 Total Bot       0.162976D-01         -1.787876         -4.116738
 Total V=0       0.128974D+09          8.110503         18.675123
 Vib (Bot)       0.126408D-09         -9.898226        -22.791507
 Vib (V=0)       0.100035D+01          0.000154          0.000354
 Electronic      0.100000D+01          0.000000          0.000000
 Translational   0.300431D+07          6.477745         14.915559
 Rotational      0.429145D+02          1.632604          3.759210
 ***** Axes restored to original set *****
 -------------------------------------------------------------------
 Center     Atomic                   Forces (Hartrees/Bohr)
 Number     Number              X              Y              Z
 -------------------------------------------------------------------
      1        8          -0.000000000   -0.000000000   -0.001269627
      2        1          -0.000000000    0.000822796    0.000633082
      3        1           0.000000000   -0.000822796    0.000633082
 -------------------------------------------------------------------
 Cartesian Forces:  Max     0.001269627 RMS     0.000647004
 Z-matrix is all fixed cartesians, so copy forces.
 Force constants in Cartesian coordinates: 
                1             2             3             4             5 
      1 -0.108977D-02
      2  0.000000D+00  0.690187D+00
      3  0.000000D+00  0.000000D+00  0.461263D+00
      4  0.544947D-03  0.000000D+00  0.000000D+00 -0.537138D-03
      5  0.000000D+00 -0.345093D+00 -0.205745D+00  0.000000D+00  0.376285D+00
      6  0.000000D+00 -0.268397D+00 -0.230631D+00  0.000000D+00  0.236678D+00
      7  0.544947D-03  0.000000D+00  0.000000D+00 -0.767416D-05  0.000000D+00
      8  0.000000D+00 -0.345093D+00  0.205745D+00  0.000000D+00 -0.311917D-01
      9  0.000000D+00  0.268397D+00 -0.230631D+00  0.000000D+00 -0.313281D-01
                6             7             8             9 
      6  0.218947D+00
      7  0.000000D+00 -0.537138D-03
      8  0.313281D-01  0.000000D+00  0.376285D+00
      9  0.116841D-01  0.000000D+00 -0.236678D+00  0.218947D+00
 Leave Link  716 at Thu Dec 18 17:05:25 2025, MaxMem= 12079595520 cpu:               0.1 elap:               0.1
 (Enter /uufs/chpc.utah.edu/sys/installdir/gaussian16/C01/AVX2/g16/l103.exe)

 GradGradGradGradGradGradGradGradGradGradGradGradGradGradGradGradGradGrad
 Berny optimization.
 Search for a local minimum.
 Step number   1 out of a maximum of    2
 All quantities printed in internal units (Hartrees-Bohrs-Radians)
 Second derivative matrix not updated -- analytic derivatives used.
 The second derivative matrix:
                          X1        Y1        Z1        X2        Y2
           X1          -0.00109
           Y1          -0.00000   0.69019
           Z1           0.00000  -0.00000   0.46126
           X2           0.00054   0.00000   0.00000  -0.00054
           Y2           0.00000  -0.34509  -0.20575  -0.00000   0.37629
           Z2           0.00000  -0.26840  -0.23063  -0.00000   0.23668
           X3           0.00054   0.00000  -0.00000  -0.00001   0.00000
           Y3           0.00000  -0.34509   0.20575   0.00000  -0.03119
           Z3          -0.00000   0.26840  -0.23063   0.00000  -0.03133
                          Z2        X3        Y3        Z3
           Z2           0.21895
           X3          -0.00000  -0.00054
           Y3           0.03133  -0.00000   0.37629
           Z3           0.01168   0.00000  -0.23668   0.21895
 ITU=  0
     Eigenvalues ---    0.15210   0.79306   0.99405
 Angle between quadratic step and forces=  22.82 degrees.
 ClnCor:  largest displacement from symmetrization is 3.07D-19 for atom     3.
 Linear search not attempted -- first point.
 ClnCor:  largest displacement from symmetrization is 1.38D-17 for atom     1.
 B after Tr=    -0.000000   -0.000000   -0.000435
         Rot=    1.000000    0.000000    0.000000    0.000000 Ang=   0.00 deg.
 Variable       Old X    -DE/DX   Delta X   Delta X   Delta X     New X
                                 (Linear)    (Quad)   (Total)
    X1       -0.00000  -0.00000   0.00000  -0.00000  -0.00000  -0.00000
    Y1       -0.00000  -0.00000   0.00000  -0.00000  -0.00000  -0.00000
    Z1        0.00000  -0.00127   0.00000  -0.00071  -0.00115  -0.00115
    X2       -0.00000  -0.00000   0.00000  -0.00000  -0.00000  -0.00000
    Y2        1.43052   0.00082   0.00000   0.00115   0.00115   1.43167
    Z2        1.10927   0.00063   0.00000   0.00101   0.00057   1.10984
    X3        0.00000   0.00000   0.00000   0.00000   0.00000   0.00000
    Y3       -1.43052  -0.00082   0.00000  -0.00115  -0.00115  -1.43167
    Z3        1.10927   0.00063   0.00000   0.00101   0.00057   1.10984
         Item               Value     Threshold  Converged?
 Maximum Force            0.001270     0.000450     NO 
 RMS     Force            0.000647     0.000300     NO 
 Maximum Displacement     0.001150     0.001800     YES
 RMS     Displacement     0.000717     0.001200     YES
 Predicted change in Energy=-2.039613D-06
 GradGradGradGradGradGradGradGradGradGradGradGradGradGradGradGradGradGrad

 Leave Link  103 at Thu Dec 18 17:05:25 2025, MaxMem= 12079595520 cpu:               0.1 elap:               0.2
 (Enter /uufs/chpc.utah.edu/sys/installdir/gaussian16/C01/AVX2/g16/l9999.exe)
 Unable to Open any file for archive entry.
 1\1\GINC-NOTCH190\Freq\RCCSD(T)-FC\Aug-CC-pVQZ\H2O1\U0253283\18-Dec-20
 25\0\\#P CCSD(T,FC,T1Diag,Conver=10, MaxCyc=200)/aug-cc-pVQZ Freq SCF=
 (Conver=12,MaxCycle=200) Integral=(Acc2E=18,BasisTransform=18)\\Water 
 molecule H2O CCSD(T)/aug-cc-pVQZ SP & Freq.\\0,1\O,0.,0.,0.\H,0.,0.757
 ,0.587\H,0.,-0.757,0.587\\Version=ES64L-G16RevC.01\State=1-A1\HF=-76.0
 659428\MP2=-76.3519167\MP3=-76.352679\MP4D=-76.3574809\MP4DQ=-76.35281
 06\MP4SDQ=-76.3546412\CCSD=-76.3542099\CCSD(T)=-76.3635857\RMSD=8.012e
 -13\RMSF=6.470e-04\ZeroPoint=0.0215197\Thermal=0.0243549\ETot=-76.3392
 308\HTot=-76.3382866\GTot=-76.3596987\PG=C02V [C2(O1),SGV(H2)]\NImag=0
 \\-0.00108977,0.,0.69018651,0.,0.,0.46126313,0.00054495,0.,0.,-0.00053
 714,0.,-0.34509302,-0.20574545,0.,0.37628510,0.,-0.26839716,-0.2306314
 7,0.,0.23667755,0.21894749,0.00054495,0.,0.,-0.00000767,0.,0.,-0.00053
 714,0.,-0.34509302,0.20574545,0.,-0.03119172,0.03132810,0.,0.37628510,
 0.,0.26839716,-0.23063147,0.,-0.03132810,0.01168408,0.,-0.23667755,0.2
 1894749\\0.,0.,0.00126963,0.,-0.00082280,-0.00063308,0.,0.00082280,-0.
 00063308\\\@
 The archive entry for this job was punched.


 THE PROMISED LAND ALWAYS LIES ON THE OTHER SIDE OF A WILDERNESS.

                         -- HAVELOCK ELLIS
 Job cpu time:       0 days  0 hours 31 minutes 30.6 seconds.
 Elapsed time:       0 days  0 hours 31 minutes 57.0 seconds.
 File lengths (MBytes):  RWF=    936 Int=      0 D2E=      0 Chk=     42 Scr=      2
 Normal termination of Gaussian 16 at Thu Dec 18 17:05:26 2025.
