 Entering Gaussian System, Link 0=g16
 Input=methane_ccsdt_opt.com
 Output=methane_ccsdt_opt.log
 Initial command:
 /uufs/chpc.utah.edu/sys/installdir/gaussian16/C01/AVX2/g16/l1.exe "/scratch/local/u0253283/10388300/notchpeak.peaks/Gau-1048498.inp" -scrdir="/scratch/local/u0253283/10388300/notchpeak.peaks/"
 Entering Link 1 = /uufs/chpc.utah.edu/sys/installdir/gaussian16/C01/AVX2/g16/l1.exe PID=   1048500.
  
 Copyright (c) 1988-2019, Gaussian, Inc.  All Rights Reserved.
  
 This is part of the Gaussian(R) 16 program.  It is based on
 the Gaussian(R) 09 system (copyright 2009, Gaussian, Inc.),
 the Gaussian(R) 03 system (copyright 2003, Gaussian, Inc.),
 the Gaussian(R) 98 system (copyright 1998, Gaussian, Inc.),
 the Gaussian(R) 94 system (copyright 1995, Gaussian, Inc.),
 the Gaussian 92(TM) system (copyright 1992, Gaussian, Inc.),
 the Gaussian 90(TM) system (copyright 1990, Gaussian, Inc.),
 the Gaussian 88(TM) system (copyright 1988, Gaussian, Inc.),
 the Gaussian 86(TM) system (copyright 1986, Carnegie Mellon
 University), and the Gaussian 82(TM) system (copyright 1983,
 Carnegie Mellon University). Gaussian is a federally registered
 trademark of Gaussian, Inc.
  
 This software contains proprietary and confidential information,
 including trade secrets, belonging to Gaussian, Inc.
  
 This software is provided under written license and may be
 used, copied, transmitted, or stored only in accord with that
 written license.
  
 The following legend is applicable only to US Government
 contracts under FAR:
  
                    RESTRICTED RIGHTS LEGEND
  
 Use, reproduction and disclosure by the US Government is
 subject to restrictions as set forth in subparagraphs (a)
 and (c) of the Commercial Computer Software - Restricted
 Rights clause in FAR 52.227-19.
  
 Gaussian, Inc.
 340 Quinnipiac St., Bldg. 40, Wallingford CT 06492
  
  
 ---------------------------------------------------------------
 Warning -- This program may not be used in any manner that
 competes with the business of Gaussian, Inc. or will provide
 assistance to any competitor of Gaussian, Inc.  The licensee
 of this program is prohibited from giving any competitor of
 Gaussian, Inc. access to this program.  By using this program,
 the user acknowledges that Gaussian, Inc. is engaged in the
 business of creating and licensing software in the field of
 computational chemistry and represents and warrants to the
 licensee that it is not a competitor of Gaussian, Inc. and that
 it will not use this program in any manner prohibited above.
 ---------------------------------------------------------------
  

 Cite this work as:
 Gaussian 16, Revision C.01,
 M. J. Frisch, G. W. Trucks, H. B. Schlegel, G. E. Scuseria, 
 M. A. Robb, J. R. Cheeseman, G. Scalmani, V. Barone, 
 G. A. Petersson, H. Nakatsuji, X. Li, M. Caricato, A. V. Marenich, 
 J. Bloino, B. G. Janesko, R. Gomperts, B. Mennucci, H. P. Hratchian, 
 J. V. Ortiz, A. F. Izmaylov, J. L. Sonnenberg, D. Williams-Young, 
 F. Ding, F. Lipparini, F. Egidi, J. Goings, B. Peng, A. Petrone, 
 T. Henderson, D. Ranasinghe, V. G. Zakrzewski, J. Gao, N. Rega, 
 G. Zheng, W. Liang, M. Hada, M. Ehara, K. Toyota, R. Fukuda, 
 J. Hasegawa, M. Ishida, T. Nakajima, Y. Honda, O. Kitao, H. Nakai, 
 T. Vreven, K. Throssell, J. A. Montgomery, Jr., J. E. Peralta, 
 F. Ogliaro, M. J. Bearpark, J. J. Heyd, E. N. Brothers, K. N. Kudin, 
 V. N. Staroverov, T. A. Keith, R. Kobayashi, J. Normand, 
 K. Raghavachari, A. P. Rendell, J. C. Burant, S. S. Iyengar, 
 J. Tomasi, M. Cossi, J. M. Millam, M. Klene, C. Adamo, R. Cammi, 
 J. W. Ochterski, R. L. Martin, K. Morokuma, O. Farkas, 
 J. B. Foresman, and D. J. Fox, Gaussian, Inc., Wallingford CT, 2019.
 
 ******************************************
 Gaussian 16:  ES64L-G16RevC.01  3-Jul-2019
                 5-Jan-2026 
 ******************************************
 %chk=ch4_ccsdt.chk
 %mem=64GB
 ----------------------------------------------------------------------
 #p CCSD(T,FC,T1Diag,Conver=10, MaxCyc=200)/aug-cc-pVTZ Opt=Z-matrix Sy
 mmetry=(Follow) SCF=(Conver=12,MaxCycle=100) Integral=(Acc2E=18,BasisT
 ransform=18)
 ----------------------------------------------------------------------

 Warning:  this job cannot use analytic gradients
           and so will do many energy evaluations.

 1/18=40,29=20000,38=1,172=1/1,14;
 2/12=2,17=6,18=5,29=3,40=1/2;
 3/5=16,6=1,7=10,11=9,25=1,27=18,30=1,60=18/1,2,3;
 4//1;
 5/5=2,6=12,7=100,38=5,87=18/2;
 8/6=4,9=120000,10=1,87=18/1,4;
 9/5=7,6=200,9=10,14=2,36=1,87=18/13;
 6/7=2,8=2,9=2,10=2,87=18/1;
 1/18=40/14(2);
 2/15=5,29=3/2;
 99//99;
 2/15=5,29=3/2;
 3/5=16,6=1,7=10,11=9,25=1,27=18,30=1,60=18/1,2,3;
 4/5=5,16=3,69=1/1;
 5/5=2,6=12,7=100,38=5,87=18/2;
 8/6=4,9=120000,10=1,87=18/1,4;
 9/5=7,6=200,9=10,14=2,36=1,87=18/13;
 1/18=40/14(-6);
 2/15=5,29=3/2;
 6/7=2,8=2,9=2,10=2,87=18/1;
 99/9=10/99;
 Leave Link    1 at Mon Jan  5 14:57:15 2026, MaxMem=  8589934592 cpu:               0.1 elap:               0.1
 (Enter /uufs/chpc.utah.edu/sys/installdir/gaussian16/C01/AVX2/g16/l101.exe)
 ------------------------------------------------------------
 Methane CCSD(T)/aug-cc-pVTZ opt. & freq. calc. using CCSD(T)
 ------------------------------------------------------------
 Symbolic Z-matrix:
 Charge =  0 Multiplicity = 1
 C
 H                    1    r_CH
 H                    1    r_CH     2    theta_HCH
 H                    1    r_CH     2    theta_HCH 3     120.     0
 H                    1    r_CH     2    theta_HCH 4     120.     0
       Variables:
  r_CH                  1.09                     
  theta_HCH           109.4712                   
 
     3 tetrahedral angles replaced.
 ITRead=  0  0  0  0  0
 MicOpt= -1 -1 -1 -1 -1
 NAtoms=      5 NQM=        5 NQMF=       0 NMMI=      0 NMMIF=      0
                NMic=       0 NMicF=      0.
    3 tetrahedral angles replaced.
                    Isotopes and Nuclear Properties:
 (Nuclear quadrupole moments (NQMom) in fm**2, nuclear magnetic moments (NMagM)
  in nuclear magnetons)

  Atom         1           2           3           4           5
 IAtWgt=          12           1           1           1           1
 AtmWgt=  12.0000000   1.0078250   1.0078250   1.0078250   1.0078250
 NucSpn=           0           1           1           1           1
 AtZEff=  -0.0000000  -0.0000000  -0.0000000  -0.0000000  -0.0000000
 NQMom=    0.0000000   0.0000000   0.0000000   0.0000000   0.0000000
 NMagM=    0.0000000   2.7928460   2.7928460   2.7928460   2.7928460
 AtZNuc=   6.0000000   1.0000000   1.0000000   1.0000000   1.0000000
 Leave Link  101 at Mon Jan  5 14:57:15 2026, MaxMem=  8589934592 cpu:               0.2 elap:               0.2
 (Enter /uufs/chpc.utah.edu/sys/installdir/gaussian16/C01/AVX2/g16/l114.exe)

 NEF-NEF-NEF-NEF-NEF-NEF-NEF-NEF-NEF-NEF-NEF-NEF-NEF-NEF-NEF-NEF-NEF-NEF-
 NUMERICAL EIGENVECTOR FOLLOWING MINIMUM SEARCH
 INITIALIZATION PASS
                       ----------------------------
                       !    Initial Parameters    !
                       ! (Angstroms and Degrees)  !
 ----------------------                            ----------------------
 !      Name          Value   Derivative information (Atomic Units)     !
 ------------------------------------------------------------------------
 !      r_CH         1.09     estimate D2E/DX2                          !
 !    theta_HCH    109.4712   estimate D2E/DX2                          !
 ------------------------------------------------------------------------


 ***************************************************
 ** O P T I M I Z A T I O N   P A R A M E T E R S **
 **  MAXIMUM NO. OF ITERATIONS      :          22 **
 **  MAXIMUM ALLOWED STEP LENGTH    :    0.300000 **
 ***************************************************



 NEF-NEF-NEF-NEF-NEF-NEF-NEF-NEF-NEF-NEF-NEF-NEF-NEF-NEF-NEF-NEF-NEF-NEF-
 Leave Link  114 at Mon Jan  5 14:57:16 2026, MaxMem=  8589934592 cpu:               0.0 elap:               0.0
 (Enter /uufs/chpc.utah.edu/sys/installdir/gaussian16/C01/AVX2/g16/l202.exe)
 ---------------------------------------------------------------------------------------------------
                            Z-MATRIX (ANGSTROMS AND DEGREES)
   CD    Cent   Atom    N1       Length/X        N2       Alpha/Y        N3        Beta/Z          J
 ---------------------------------------------------------------------------------------------------
      1      1  C 
      2      2  H        1   1.090000(     1)
      3      3  H        1   1.090000(     2)      2  109.471(     5)
      4      4  H        1   1.090000(     3)      2  109.471(     6)      3  120.000(     8)      0
      5      5  H        1   1.090000(     4)      2  109.471(     7)      4  120.000(     9)      0
 ---------------------------------------------------------------------------------------------------
                         Z-Matrix orientation:                         
 ---------------------------------------------------------------------
 Center     Atomic      Atomic             Coordinates (Angstroms)
 Number     Number       Type             X           Y           Z
 ---------------------------------------------------------------------
      1          6           0        0.000000    0.000000    0.000000
      2          1           0        0.000000    0.000000    1.090000
      3          1           0        1.027662    0.000000   -0.363333
      4          1           0       -0.513831   -0.889981   -0.363333
      5          1           0       -0.513831    0.889981   -0.363333
 ---------------------------------------------------------------------
                    Distance matrix (angstroms):
                    1          2          3          4          5
     1  C    0.000000
     2  H    1.090000   0.000000
     3  H    1.090000   1.779963   0.000000
     4  H    1.090000   1.779963   1.779963   0.000000
     5  H    1.090000   1.779963   1.779963   1.779963   0.000000
 Stoichiometry    CH4
 Framework group  TD[O(C),4C3(H)]
 Deg. of freedom     1
 Full point group                 TD      NOp  24
 Largest Abelian subgroup         D2      NOp   4
 Largest concise Abelian subgroup D2      NOp   4
                         Standard orientation:                         
 ---------------------------------------------------------------------
 Center     Atomic      Atomic             Coordinates (Angstroms)
 Number     Number       Type             X           Y           Z
 ---------------------------------------------------------------------
      1          6           0        0.000000    0.000000    0.000000
      2          1           0        0.629312    0.629312    0.629312
      3          1           0       -0.629312   -0.629312    0.629312
      4          1           0       -0.629312    0.629312   -0.629312
      5          1           0        0.629312   -0.629312   -0.629312
 ---------------------------------------------------------------------
 Rotational constants (GHZ):         158.2742734         158.2742734         158.2742734
 Leave Link  202 at Mon Jan  5 14:57:16 2026, MaxMem=  8589934592 cpu:               0.0 elap:               0.0
 (Enter /uufs/chpc.utah.edu/sys/installdir/gaussian16/C01/AVX2/g16/l301.exe)
 Standard basis: Aug-CC-pVTZ (5D, 7F)
 Ernie: Thresh=  0.10000D-02 Tol=  0.10000D-17 Strict=F.
 Ernie:  2 primitive shells out of 74 were deleted.
 There are    41 symmetry adapted cartesian basis functions of A   symmetry.
 There are    38 symmetry adapted cartesian basis functions of B1  symmetry.
 There are    38 symmetry adapted cartesian basis functions of B2  symmetry.
 There are    38 symmetry adapted cartesian basis functions of B3  symmetry.
 There are    36 symmetry adapted basis functions of A   symmetry.
 There are    34 symmetry adapted basis functions of B1  symmetry.
 There are    34 symmetry adapted basis functions of B2  symmetry.
 There are    34 symmetry adapted basis functions of B3  symmetry.
   138 basis functions,   181 primitive gaussians,   155 cartesian basis functions
     5 alpha electrons        5 beta electrons
       nuclear repulsion energy        13.4353892546 Hartrees.
 IExCor=    0 DFT=F Ex=HF Corr=None ExCW=0 ScaHFX=  1.000000
 ScaDFX=  1.000000  1.000000  1.000000  1.000000 ScalE2=  1.000000  1.000000
 IRadAn=      5 IRanWt=     -1 IRanGd=            0 ICorTp=0 IEmpDi=  4
 NAtoms=    5 NActive=    5 NUniq=    2 SFac= 4.00D+00 NAtFMM=   60 NAOKFM=F Big=F
 Integral buffers will be    131072 words long.
 Raffenetti 1 integral format.
 Two-electron integral symmetry is turned on.
 Leave Link  301 at Mon Jan  5 14:57:16 2026, MaxMem=  8589934592 cpu:               0.1 elap:               0.1
 (Enter /uufs/chpc.utah.edu/sys/installdir/gaussian16/C01/AVX2/g16/l302.exe)
 NPDir=0 NMtPBC=     1 NCelOv=     1 NCel=       1 NClECP=     1 NCelD=      1
         NCelK=      1 NCelE2=     1 NClLst=     1 CellRange=     0.0.
 One-electron integrals computed using PRISM.
 One-electron integral symmetry used in STVInt
 NBasis=   138 RedAO= T EigKep=  8.32D-05  NBF=    36    34    34    34
 NBsUse=   138 1.00D-06 EigRej= -1.00D+00 NBFU=    36    34    34    34
 Leave Link  302 at Mon Jan  5 14:57:17 2026, MaxMem=  8589934592 cpu:               0.2 elap:               0.2
 (Enter /uufs/chpc.utah.edu/sys/installdir/gaussian16/C01/AVX2/g16/l303.exe)
 DipDrv:  MaxL=1.
 Leave Link  303 at Mon Jan  5 14:57:18 2026, MaxMem=  8589934592 cpu:               0.1 elap:               0.1
 (Enter /uufs/chpc.utah.edu/sys/installdir/gaussian16/C01/AVX2/g16/l401.exe)
 ExpMin= 2.53D-02 ExpMax= 8.24D+03 ExpMxC= 2.81D+02 IAcc=3 IRadAn=         5 AccDes= 0.00D+00
 Harris functional with IExCor=  205 and IRadAn=       5 diagonalized for initial guess.
 HarFok:  IExCor=  205 AccDes= 0.00D+00 IRadAn=         5 IDoV= 1 UseB2=F ITyADJ=14
 ICtDFT=  3500011 ScaDFX=  1.000000  1.000000  1.000000  1.000000
 FoFCou: FMM=F IPFlag=           0 FMFlag=      100000 FMFlg1=           0
         NFxFlg=           0 DoJE=T BraDBF=F KetDBF=T FulRan=T
         wScrn=  0.000000 ICntrl=       500 IOpCl=  0 I1Cent=   200000004 NGrid=           0
         NMat0=    1 NMatS0=      1 NMatT0=    0 NMatD0=    1 NMtDS0=    0 NMtDT0=    0
 Petite list used in FoFCou.
 Harris En= -40.3969166472717    
 JPrj=0 DoOrth=F DoCkMO=F.
 Initial guess orbital symmetries:
       Occupied  (A1) (A1) (T2) (T2) (T2)
       Virtual   (A1) (T2) (T2) (T2) (T2) (T2) (T2) (A1) (T2) (T2)
                 (T2) (E) (E) (A1) (T2) (T2) (T2) (T1) (T1) (T1)
                 (T2) (T2) (T2) (A1) (T2) (T2) (T2) (E) (E) (T2)
                 (T2) (T2) (A1) (T2) (T2) (T2) (T1) (T1) (T1) (E)
                 (E) (A1) (T2) (T2) (T2) (T2) (T2) (T2) (T1) (T1)
                 (T1) (E) (E) (T2) (T2) (T2) (E) (E) (A1) (T2)
                 (T2) (T2) (A1) (T1) (T1) (T1) (T2) (T2) (T2) (T2)
                 (T2) (T2) (T1) (T1) (T1) (T2) (T2) (T2) (E) (E)
                 (A1) (A1) (T2) (T2) (T2) (E) (E) (T2) (T2) (T2)
                 (T1) (T1) (T1) (T2) (T2) (T2) (T2) (T2) (T2) (T1)
                 (T1) (T1) (E) (E) (A1) (T2) (T2) (T2) (E) (E)
                 (T2) (T2) (T2) (T1) (T1) (T1) (A1) (T2) (T2) (T2)
                 (T1) (T1) (T1) (A1) (E) (E) (T2) (T2) (T2) (T2)
                 (T2) (T2) (A1)
 The electronic state of the initial guess is 1-A1.
 Leave Link  401 at Mon Jan  5 14:57:19 2026, MaxMem=  8589934592 cpu:               0.3 elap:               0.4
 (Enter /uufs/chpc.utah.edu/sys/installdir/gaussian16/C01/AVX2/g16/l502.exe)
 Keep R1 ints in memory in symmetry-blocked form, NReq=57528360.
 FoFCou: FMM=F IPFlag=           0 FMFlag=           0 FMFlg1=           0
         NFxFlg=           0 DoJE=F BraDBF=F KetDBF=F FulRan=T
         wScrn=  0.000000 ICntrl=       600 IOpCl=  0 I1Cent=           0 NGrid=           0
         NMat0=    1 NMatS0=   9591 NMatT0=    0 NMatD0=    1 NMtDS0=    0 NMtDT0=    0
 Petite list used in FoFCou.
 Closed shell SCF:
 Using DIIS extrapolation, IDIIS=  1040.
 NGot=  8589934592 LenX=  8578355117 LenY=  8578330651
 Requested convergence on RMS density matrix=1.00D-12 within 100 cycles.
 Requested convergence on MAX density matrix=1.00D-10.
 Requested convergence on             energy=1.00D-10.
 No special actions if energy rises.

 Cycle   1  Pass 1  IDiag  1:
 E= -40.0757854171618    
 DIIS: error= 5.14D-02 at cycle   1 NSaved=   1.
 NSaved= 1 IEnMin= 1 EnMin= -40.0757854171618     IErMin= 1 ErrMin= 5.14D-02
 ErrMax= 5.14D-02  0.00D+00 EMaxC= 1.00D-01 BMatC= 1.78D-01 BMatP= 1.78D-01
 IDIUse=3 WtCom= 4.86D-01 WtEn= 5.14D-01
 Coeff-Com:  0.100D+01
 Coeff-En:   0.100D+01
 Coeff:      0.100D+01
 Gap=     0.515 Goal=   None    Shift=    0.000
 GapD=    0.515 DampG=2.000 DampE=0.500 DampFc=1.0000 IDamp=-1.
 RMSDP=1.63D-03 MaxDP=6.10D-02              OVMax= 1.50D-01

 Cycle   2  Pass 1  IDiag  1:
 E= -40.1911179541599     Delta-E=       -0.115332536998 Rises=F Damp=F
 DIIS: error= 2.14D-02 at cycle   2 NSaved=   2.
 NSaved= 2 IEnMin= 2 EnMin= -40.1911179541599     IErMin= 2 ErrMin= 2.14D-02
 ErrMax= 2.14D-02  0.00D+00 EMaxC= 1.00D-01 BMatC= 2.50D-02 BMatP= 1.78D-01
 IDIUse=3 WtCom= 7.86D-01 WtEn= 2.14D-01
 Coeff-Com:  0.237D+00 0.763D+00
 Coeff-En:   0.000D+00 0.100D+01
 Coeff:      0.186D+00 0.814D+00
 Gap=     0.590 Goal=   None    Shift=    0.000
 RMSDP=7.43D-04 MaxDP=2.92D-02 DE=-1.15D-01 OVMax= 4.88D-02

 Cycle   3  Pass 1  IDiag  1:
 E= -40.2129115772221     Delta-E=       -0.021793623062 Rises=F Damp=F
 DIIS: error= 2.73D-03 at cycle   3 NSaved=   3.
 NSaved= 3 IEnMin= 3 EnMin= -40.2129115772221     IErMin= 3 ErrMin= 2.73D-03
 ErrMax= 2.73D-03  0.00D+00 EMaxC= 1.00D-01 BMatC= 5.62D-04 BMatP= 2.50D-02
 IDIUse=3 WtCom= 9.73D-01 WtEn= 2.73D-02
 Coeff-Com: -0.277D-01 0.745D-01 0.953D+00
 Coeff-En:   0.000D+00 0.000D+00 0.100D+01
 Coeff:     -0.269D-01 0.724D-01 0.954D+00
 Gap=     0.575 Goal=   None    Shift=    0.000
 RMSDP=8.29D-05 MaxDP=2.15D-03 DE=-2.18D-02 OVMax= 7.88D-03

 Cycle   4  Pass 1  IDiag  1:
 E= -40.2135204274854     Delta-E=       -0.000608850263 Rises=F Damp=F
 DIIS: error= 4.90D-04 at cycle   4 NSaved=   4.
 NSaved= 4 IEnMin= 4 EnMin= -40.2135204274854     IErMin= 4 ErrMin= 4.90D-04
 ErrMax= 4.90D-04  0.00D+00 EMaxC= 1.00D-01 BMatC= 6.06D-06 BMatP= 5.62D-04
 IDIUse=3 WtCom= 9.95D-01 WtEn= 4.90D-03
 Coeff-Com:  0.734D-02-0.355D-01-0.320D+00 0.135D+01
 Coeff-En:   0.000D+00 0.000D+00 0.000D+00 0.100D+01
 Coeff:      0.730D-02-0.354D-01-0.319D+00 0.135D+01
 Gap=     0.575 Goal=   None    Shift=    0.000
 RMSDP=2.62D-05 MaxDP=5.11D-04 DE=-6.09D-04 OVMax= 1.71D-03

 Cycle   5  Pass 1  IDiag  1:
 E= -40.2135356818289     Delta-E=       -0.000015254343 Rises=F Damp=F
 DIIS: error= 5.77D-05 at cycle   5 NSaved=   5.
 NSaved= 5 IEnMin= 5 EnMin= -40.2135356818289     IErMin= 5 ErrMin= 5.77D-05
 ErrMax= 5.77D-05  0.00D+00 EMaxC= 1.00D-01 BMatC= 1.05D-07 BMatP= 6.06D-06
 IDIUse=1 WtCom= 1.00D+00 WtEn= 0.00D+00
 Coeff-Com: -0.581D-03 0.381D-02 0.364D-01-0.259D+00 0.122D+01
 Coeff:     -0.581D-03 0.381D-02 0.364D-01-0.259D+00 0.122D+01
 Gap=     0.575 Goal=   None    Shift=    0.000
 RMSDP=4.86D-06 MaxDP=1.07D-04 DE=-1.53D-05 OVMax= 2.47D-04

 Cycle   6  Pass 1  IDiag  1:
 E= -40.2135359456275     Delta-E=       -0.000000263799 Rises=F Damp=F
 DIIS: error= 2.77D-06 at cycle   6 NSaved=   6.
 NSaved= 6 IEnMin= 6 EnMin= -40.2135359456275     IErMin= 6 ErrMin= 2.77D-06
 ErrMax= 2.77D-06  0.00D+00 EMaxC= 1.00D-01 BMatC= 4.42D-10 BMatP= 1.05D-07
 IDIUse=1 WtCom= 1.00D+00 WtEn= 0.00D+00
 Coeff-Com:  0.954D-04-0.659D-03-0.651D-02 0.510D-01-0.283D+00 0.124D+01
 Coeff:      0.954D-04-0.659D-03-0.651D-02 0.510D-01-0.283D+00 0.124D+01
 Gap=     0.575 Goal=   None    Shift=    0.000
 RMSDP=2.53D-07 MaxDP=6.32D-06 DE=-2.64D-07 OVMax= 1.57D-05

 Cycle   7  Pass 1  IDiag  1:
 E= -40.2135359467345     Delta-E=       -0.000000001107 Rises=F Damp=F
 DIIS: error= 1.91D-07 at cycle   7 NSaved=   7.
 NSaved= 7 IEnMin= 7 EnMin= -40.2135359467345     IErMin= 7 ErrMin= 1.91D-07
 ErrMax= 1.91D-07  0.00D+00 EMaxC= 1.00D-01 BMatC= 2.04D-12 BMatP= 4.42D-10
 IDIUse=1 WtCom= 1.00D+00 WtEn= 0.00D+00
 Coeff-Com: -0.115D-04 0.770D-04 0.799D-03-0.650D-02 0.373D-01-0.199D+00
 Coeff-Com:  0.117D+01
 Coeff:     -0.115D-04 0.770D-04 0.799D-03-0.650D-02 0.373D-01-0.199D+00
 Coeff:      0.117D+01
 Gap=     0.575 Goal=   None    Shift=    0.000
 RMSDP=5.34D-08 MaxDP=7.56D-07 DE=-1.11D-09 OVMax= 9.96D-07

 Cycle   8  Pass 1  IDiag  1:
 E= -40.2135359467394     Delta-E=       -0.000000000005 Rises=F Damp=F
 DIIS: error= 1.17D-08 at cycle   8 NSaved=   8.
 NSaved= 8 IEnMin= 8 EnMin= -40.2135359467394     IErMin= 8 ErrMin= 1.17D-08
 ErrMax= 1.17D-08  0.00D+00 EMaxC= 1.00D-01 BMatC= 9.44D-15 BMatP= 2.04D-12
 IDIUse=1 WtCom= 1.00D+00 WtEn= 0.00D+00
 Coeff-Com:  0.102D-05-0.636D-05-0.701D-04 0.581D-03-0.333D-02 0.193D-01
 Coeff-Com: -0.159D+00 0.114D+01
 Coeff:      0.102D-05-0.636D-05-0.701D-04 0.581D-03-0.333D-02 0.193D-01
 Coeff:     -0.159D+00 0.114D+01
 Gap=     0.575 Goal=   None    Shift=    0.000
 RMSDP=9.15D-09 MaxDP=1.76D-07 DE=-4.89D-12 OVMax= 6.89D-08

 Cycle   9  Pass 1  IDiag  1:
 E= -40.2135359467393     Delta-E=        0.000000000000 Rises=F Damp=F
 DIIS: error= 2.19D-09 at cycle   9 NSaved=   9.
 NSaved= 9 IEnMin= 8 EnMin= -40.2135359467394     IErMin= 9 ErrMin= 2.19D-09
 ErrMax= 2.19D-09  0.00D+00 EMaxC= 1.00D-01 BMatC= 1.28D-16 BMatP= 9.44D-15
 IDIUse=1 WtCom= 1.00D+00 WtEn= 0.00D+00
 Coeff-Com: -0.854D-07 0.497D-06 0.625D-05-0.528D-04 0.302D-03-0.179D-02
 Coeff-Com:  0.157D-01-0.155D+00 0.114D+01
 Coeff:     -0.854D-07 0.497D-06 0.625D-05-0.528D-04 0.302D-03-0.179D-02
 Coeff:      0.157D-01-0.155D+00 0.114D+01
 Gap=     0.575 Goal=   None    Shift=    0.000
 RMSDP=7.93D-10 MaxDP=1.22D-08 DE= 1.28D-13 OVMax= 5.14D-09

 Cycle  10  Pass 1  IDiag  1:
 E= -40.2135359467393     Delta-E=       -0.000000000000 Rises=F Damp=F
 DIIS: error= 1.73D-10 at cycle  10 NSaved=  10.
 NSaved=10 IEnMin= 8 EnMin= -40.2135359467394     IErMin=10 ErrMin= 1.73D-10
 ErrMax= 1.73D-10  0.00D+00 EMaxC= 1.00D-01 BMatC= 7.35D-19 BMatP= 1.28D-16
 IDIUse=1 WtCom= 1.00D+00 WtEn= 0.00D+00
 Coeff-Com:  0.900D-08-0.476D-07-0.702D-06 0.599D-05-0.336D-04 0.208D-03
 Coeff-Com: -0.196D-02 0.231D-01-0.243D+00 0.122D+01
 Coeff:      0.900D-08-0.476D-07-0.702D-06 0.599D-05-0.336D-04 0.208D-03
 Coeff:     -0.196D-02 0.231D-01-0.243D+00 0.122D+01
 Gap=     0.575 Goal=   None    Shift=    0.000
 RMSDP=2.41D-11 MaxDP=3.26D-10 DE=-7.11D-14 OVMax= 5.32D-10

 Cycle  11  Pass 1  IDiag  1:
 E= -40.2135359467392     Delta-E=        0.000000000000 Rises=F Damp=F
 DIIS: error= 2.38D-11 at cycle  11 NSaved=  11.
 NSaved=11 IEnMin= 8 EnMin= -40.2135359467394     IErMin=11 ErrMin= 2.38D-11
 ErrMax= 2.38D-11  0.00D+00 EMaxC= 1.00D-01 BMatC= 8.47D-21 BMatP= 7.35D-19
 IDIUse=1 WtCom= 1.00D+00 WtEn= 0.00D+00
 Coeff-Com: -0.840D-09 0.376D-08 0.716D-07-0.622D-06 0.344D-05-0.219D-04
 Coeff-Com:  0.215D-03-0.280D-02 0.356D-01-0.238D+00 0.121D+01
 Coeff:     -0.840D-09 0.376D-08 0.716D-07-0.622D-06 0.344D-05-0.219D-04
 Coeff:      0.215D-03-0.280D-02 0.356D-01-0.238D+00 0.121D+01
 Gap=     0.575 Goal=   None    Shift=    0.000
 RMSDP=6.96D-12 MaxDP=1.18D-10 DE= 1.71D-13 OVMax= 6.15D-11

 Cycle  12  Pass 1  IDiag  1:
 E= -40.2135359467395     Delta-E=       -0.000000000000 Rises=F Damp=F
 DIIS: error= 2.18D-12 at cycle  12 NSaved=  12.
 NSaved=12 IEnMin=12 EnMin= -40.2135359467395     IErMin=12 ErrMin= 2.18D-12
 ErrMax= 2.18D-12  0.00D+00 EMaxC= 1.00D-01 BMatC= 5.56D-23 BMatP= 8.47D-21
 IDIUse=1 WtCom= 1.00D+00 WtEn= 0.00D+00
 Coeff-Com: -0.399D-10 0.229D-09 0.321D-08-0.277D-07 0.160D-06-0.991D-06
 Coeff-Com:  0.898D-05-0.994D-04 0.107D-02-0.586D-02 0.121D-01 0.993D+00
 Coeff:     -0.399D-10 0.229D-09 0.321D-08-0.277D-07 0.160D-06-0.991D-06
 Coeff:      0.898D-05-0.994D-04 0.107D-02-0.586D-02 0.121D-01 0.993D+00
 Gap=     0.575 Goal=   None    Shift=    0.000
 RMSDP=1.44D-13 MaxDP=2.90D-12 DE=-3.41D-13 OVMax= 1.85D-12

 SCF Done:  E(RHF) =  -40.2135359467     A.U. after   12 cycles
            NFock= 12  Conv=0.14D-12     -V/T= 2.0016
 KE= 4.014845106287D+01 PE=-1.198799600453D+02 EE= 2.608258378112D+01
 Leave Link  502 at Mon Jan  5 14:57:25 2026, MaxMem=  8589934592 cpu:               6.2 elap:               6.3
 (Enter /uufs/chpc.utah.edu/sys/installdir/gaussian16/C01/AVX2/g16/l801.exe)
 Windowed orbitals will be sorted by symmetry type.
 ExpMin= 2.53D-02 ExpMax= 8.24D+03 ExpMxC= 2.81D+02 IAcc=3 IRadAn=         5 AccDes= 0.00D+00
 HarFok:  IExCor=  205 AccDes= 0.00D+00 IRadAn=         5 IDoV=-2 UseB2=F ITyADJ=14
 ICtDFT= 12500011 ScaDFX=  1.000000  1.000000  1.000000  1.000000
 Largest valence mixing into a core orbital is  1.88D-04
 Largest core mixing into a valence orbital is  2.67D-05
 Range of M.O.s used for correlation:     2   138
 NBasis=   138 NAE=     5 NBE=     5 NFC=     1 NFV=     0
 NROrb=    137 NOA=     4 NOB=     4 NVA=   133 NVB=   133

 **** Warning!!: The largest alpha MO coefficient is  0.57774873D+02

 Leave Link  801 at Mon Jan  5 14:57:26 2026, MaxMem=  8589934592 cpu:               0.3 elap:               0.3
 (Enter /uufs/chpc.utah.edu/sys/installdir/gaussian16/C01/AVX2/g16/l804.exe)
 Closed-shell transformation, MDV=  8589934592 ITran=4 ISComp=2.
 Unit  1 TFree=        622562 TCopy=        145087.
 Semi-Direct transformation.
 ModeAB=           4 MOrb=             4 LenV=    8572823000
 LASXX=      1252303 LTotXX=     1252303 LenRXX=     2531958
 LTotAB=     1279655 MaxLAS=     2475864 LenRXY=           0
 NonZer=     3784261 LenScr=     6382080 LnRSAI=     2475864
 LnScr1=     4454400 LExtra=           0 Total=     15844302
 MaxDsk=          -1 SrtSym=           T ITran=            4
 DoSDTr:  NPSUse=  1
 JobTyp=0 Pass  1:  I=   1 to   4.
 (rs|ai) integrals will be sorted in core.
 Complete sort for first half transformation.
 First half transformation complete.
 Complete sort for second half transformation.
 Second half transformation complete.
 Spin components of T(2) and E(2):
     alpha-alpha T2 =       0.6189806088D-02 E2=     -0.1830837712D-01
     alpha-beta  T2 =       0.4949488416D-01 E2=     -0.1642692722D+00
     beta-beta   T2 =       0.6189806088D-02 E2=     -0.1830837712D-01
 ANorm=    0.1030472948D+01
 E2 =    -0.2008860265D+00 EUMP2 =    -0.40414421973215D+02
 Leave Link  804 at Mon Jan  5 14:57:29 2026, MaxMem=  8589934592 cpu:               3.2 elap:               3.2
 (Enter /uufs/chpc.utah.edu/sys/installdir/gaussian16/C01/AVX2/g16/l913.exe)
 CIDS:  MDV=  8589934592.
 Frozen-core window:  NFC=   1 NFV=   0.
 IFCWin=0 IBDFC=1 NFBD=     0     0 NFCmp=     0     0 NFFFC=     0     0
 Using DD3R+UMP44R for 1st iteration.
 Using DD4RQ for 2nd and later iterations.
 Keep R2 and R3 ints in memory in symmetry-blocked form, NReq=57533230.
 FoFCou: FMM=F IPFlag=           0 FMFlag=           0 FMFlg1=           0
         NFxFlg=           0 DoJE=F BraDBF=F KetDBF=F FulRan=T
         wScrn=  0.000000 ICntrl=       600 IOpCl=  0 I1Cent=           0 NGrid=           0
         NMat0=    1 NMatS0=   9591 NMatT0=    0 NMatD0=    1 NMtDS0=    0 NMtDT0=    0
 Petite list used in FoFCou.
 CIDS: In Core Option IDoMem=           1.
 CCSD(T)
 =======
 Iterations= 200 Convergence= 0.100D-09
 Produce multiple copies of IABC intergrals
 Iteration Nr.   1
 **********************
 DD1Dir will call FoFMem   1 times, MxPair=        20
 NAB=    10 NAA=     0 NBB=     0.
 MP4(R+Q)=  0.40553004D-02
 Maximum subspace dimension=  5
 A-vector RMS=  1.6390755D-03 Max=  4.5348238D-03 conv= 1.00D-08.
 RLE energy=       -0.2159141521
 E3=       -0.18117881D-01        EUMP3=      -0.40432539855D+02
 E4(DQ)=   -0.83727291D-03        UMP4(DQ)=   -0.40433377128D+02
 E4(SDQ)=  -0.18174572D-02        UMP4(SDQ)=  -0.40434357312D+02
 VARIATIONAL ENERGIES WITH THE FIRST-ORDER WAVEFUNCTION:
 DE(Corr)= -0.21486819     E(Corr)=     -40.428404141    
 NORM(A)=   0.10366331D+01
 Iteration Nr.   2
 **********************
 DD1Dir will call FoFMem   1 times, MxPair=        20
 NAB=    10 NAA=     0 NBB=     0.
 A-vector RMS=  2.5254448D-04 Max=  6.8051053D-04 conv= 1.00D-08.
 RLE energy=       -0.2205661453
 DE(Corr)= -0.21962592     E(CORR)=     -40.433161871     Delta=-4.76D-03
 NORM(A)=   0.10388732D+01
 Iteration Nr.   3
 **********************
 DD1Dir will call FoFMem   1 times, MxPair=        20
 NAB=    10 NAA=     0 NBB=     0.
 A-vector RMS=  1.2039082D-04 Max=  4.0831104D-04 conv= 1.00D-08.
 RLE energy=       -0.2207849300
 DE(Corr)= -0.22053221     E(CORR)=     -40.434068160     Delta=-9.06D-04
 NORM(A)=   0.10392483D+01
 Iteration Nr.   4
 **********************
 DD1Dir will call FoFMem   1 times, MxPair=        20
 NAB=    10 NAA=     0 NBB=     0.
 A-vector RMS=  1.8304878D-05 Max=  5.8202094D-05 conv= 1.00D-08.
 RLE energy=       -0.2208357115
 DE(Corr)= -0.22081274     E(CORR)=     -40.434348689     Delta=-2.81D-04
 NORM(A)=   0.10393071D+01
 Iteration Nr.   5
 **********************
 DD1Dir will call FoFMem   1 times, MxPair=        20
 NAB=    10 NAA=     0 NBB=     0.
 A-vector RMS=  5.0613733D-06 Max=  1.9518772D-05 conv= 1.00D-08.
 RLE energy=       -0.2208337317
 DE(Corr)= -0.22083198     E(CORR)=     -40.434367929     Delta=-1.92D-05
 NORM(A)=   0.10393096D+01
 Iteration Nr.   6
 **********************
 DD1Dir will call FoFMem   1 times, MxPair=        20
 NAB=    10 NAA=     0 NBB=     0.
 A-vector RMS=  1.1612194D-06 Max=  5.8415923D-06 conv= 1.00D-08.
 RLE energy=       -0.2208313905
 DE(Corr)= -0.22083270     E(CORR)=     -40.434368646     Delta=-7.17D-07
 NORM(A)=   0.10393088D+01
 Iteration Nr.   7
 **********************
 DD1Dir will call FoFMem   1 times, MxPair=        20
 NAB=    10 NAA=     0 NBB=     0.
 A-vector RMS=  2.9667653D-07 Max=  1.5679294D-06 conv= 1.00D-08.
 RLE energy=       -0.2208325079
 DE(Corr)= -0.22083257     E(CORR)=     -40.434368512     Delta= 1.34D-07
 NORM(A)=   0.10393088D+01
 Iteration Nr.   8
 **********************
 DD1Dir will call FoFMem   1 times, MxPair=        20
 NAB=    10 NAA=     0 NBB=     0.
 A-vector RMS=  1.3025523D-07 Max=  4.9904609D-07 conv= 1.00D-08.
 RLE energy=       -0.2208324869
 DE(Corr)= -0.22083250     E(CORR)=     -40.434368451     Delta= 6.13D-08
 NORM(A)=   0.10393089D+01
 Iteration Nr.   9
 **********************
 DD1Dir will call FoFMem   1 times, MxPair=        20
 NAB=    10 NAA=     0 NBB=     0.
 A-vector RMS=  3.5245541D-08 Max=  1.8108815D-07 conv= 1.00D-08.
 RLE energy=       -0.2208325942
 DE(Corr)= -0.22083258     E(CORR)=     -40.434368529     Delta=-7.80D-08
 NORM(A)=   0.10393089D+01
 Iteration Nr.  10
 **********************
 DD1Dir will call FoFMem   1 times, MxPair=        20
 NAB=    10 NAA=     0 NBB=     0.
 A-vector RMS=  1.0063865D-08 Max=  5.8149535D-08 conv= 1.00D-08.
 RLE energy=       -0.2208326051
 DE(Corr)= -0.22083260     E(CORR)=     -40.434368545     Delta=-1.65D-08
 NORM(A)=   0.10393089D+01
 Iteration Nr.  11
 **********************
 DD1Dir will call FoFMem   1 times, MxPair=        20
 NAB=    10 NAA=     0 NBB=     0.
 A-vector RMS=  3.4701874D-09 Max=  1.9425479D-08 conv= 1.00D-08.
 RLE energy=       -0.2208326108
 DE(Corr)= -0.22083261     E(CORR)=     -40.434368555     Delta=-1.02D-08
 NORM(A)=   0.10393089D+01
 Iteration Nr.  12
 **********************
 DD1Dir will call FoFMem   1 times, MxPair=        20
 NAB=    10 NAA=     0 NBB=     0.
 A-vector RMS=  7.9002073D-10 Max=  3.7455447D-09 conv= 1.00D-08.
 RLE energy=       -0.2208326127
 DE(Corr)= -0.22083261     E(CORR)=     -40.434368559     Delta=-3.19D-09
 NORM(A)=   0.10393089D+01
 Iteration Nr.  13
 **********************
 DD1Dir will call FoFMem   1 times, MxPair=        20
 NAB=    10 NAA=     0 NBB=     0.
 A-vector RMS=  3.6134348D-10 Max=  1.1909730D-09 conv= 1.00D-08.
 RLE energy=       -0.2208326128
 DE(Corr)= -0.22083261     E(CORR)=     -40.434368559     Delta=-7.90D-10
 NORM(A)=   0.10393089D+01
 Iteration Nr.  14
 **********************
 DD1Dir will call FoFMem   1 times, MxPair=        20
 NAB=    10 NAA=     0 NBB=     0.
 A-vector RMS=  7.4848530D-11 Max=  3.6395941D-10 conv= 1.00D-08.
 RLE energy=       -0.2208326128
 DE(Corr)= -0.22083261     E(CORR)=     -40.434368560     Delta=-1.95D-10
 NORM(A)=   0.10393089D+01
 Iteration Nr.  15
 **********************
 DD1Dir will call FoFMem   1 times, MxPair=        20
 NAB=    10 NAA=     0 NBB=     0.
 A-vector RMS=  3.3350503D-11 Max=  1.1942807D-10 conv= 1.00D-08.
 RLE energy=       -0.2208326128
 DE(Corr)= -0.22083261     E(CORR)=     -40.434368560     Delta=-3.35D-11
 NORM(A)=   0.10393089D+01
 CI/CC converged in   15 iterations to DelEn=-3.35D-11 Conv= 1.00D-10 ErrA1= 3.34D-11 Conv= 1.00D-08
 Wavefunction amplitudes converged. E(Corr)=     -40.434368560    
 T1 Diagnostic =     0.00753760
 Largest amplitude= 1.39D-02
 IPart=  1 IA=    8   10.29% done.
 IPart=  1 IA=   15   20.02% done.
 IPart=  1 IA=   23   30.45% done.
 IPart=  1 IA=   31   40.16% done.
 IPart=  1 IA=   40   50.21% done.
 IPart=  1 IA=   50   60.29% done.
 IPart=  1 IA=   61   70.06% done.
 IPart=  1 IA=   75   80.51% done.
 IPart=  1 IA=   92   90.19% done.
 Time for triples=       15.57 seconds.
 T4(CCSD)= -0.67582348D-02
 T5(CCSD)=  0.19660545D-03
 CCSD(T)= -0.40440930189D+02
 Discarding MO integrals.
 Leave Link  913 at Mon Jan  5 14:58:01 2026, MaxMem=  8589934592 cpu:              31.3 elap:              31.5
 (Enter /uufs/chpc.utah.edu/sys/installdir/gaussian16/C01/AVX2/g16/l601.exe)
 Copying SCF densities to generalized density rwf, IOpCl= 0 IROHF=0.

 **********************************************************************

            Population analysis using the SCF Density.

 **********************************************************************

 Orbital symmetries:
       Occupied  (A1) (A1) (T2) (T2) (T2)
       Virtual   (A1) (T2) (T2) (T2) (T2) (T2) (T2) (A1) (E) (E)
                 (T2) (T2) (T2) (T2) (T2) (T2) (A1) (T1) (T1) (T1)
                 (T2) (T2) (T2) (A1) (T2) (T2) (T2) (E) (E) (T2)
                 (T2) (T2) (A1) (T2) (T2) (T2) (T1) (T1) (T1) (T2)
                 (T2) (T2) (E) (E) (A1) (T2) (T2) (T2) (T1) (T1)
                 (T1) (E) (E) (T2) (T2) (T2) (E) (E) (A1) (T2)
                 (T2) (T2) (T1) (T1) (T1) (A1) (T2) (T2) (T2) (T2)
                 (T2) (T2) (T1) (T1) (T1) (T2) (T2) (T2) (E) (E)
                 (A1) (A1) (T2) (T2) (T2) (E) (E) (T2) (T2) (T2)
                 (T1) (T1) (T1) (T2) (T2) (T2) (T2) (T2) (T2) (T1)
                 (T1) (T1) (E) (E) (A1) (T2) (T2) (T2) (E) (E)
                 (T2) (T2) (T2) (T1) (T1) (T1) (T2) (T2) (T2) (A1)
                 (T1) (T1) (T1) (E) (E) (A1) (T2) (T2) (T2) (T2)
                 (T2) (T2) (A1)
 The electronic state is 1-A1.
 Alpha  occ. eigenvalues --  -11.20732  -0.94235  -0.54450  -0.54450  -0.54450
 Alpha virt. eigenvalues --    0.03079   0.05048   0.05048   0.05048   0.12393
 Alpha virt. eigenvalues --    0.12393   0.12393   0.14188   0.22292   0.22292
 Alpha virt. eigenvalues --    0.22806   0.22806   0.22806   0.32987   0.32987
 Alpha virt. eigenvalues --    0.32987   0.33689   0.35388   0.35388   0.35388
 Alpha virt. eigenvalues --    0.39209   0.39209   0.39209   0.40127   0.46254
 Alpha virt. eigenvalues --    0.46254   0.46254   0.50027   0.50027   0.67748
 Alpha virt. eigenvalues --    0.67748   0.67748   0.79507   0.83146   0.83146
 Alpha virt. eigenvalues --    0.83146   0.89273   0.89273   0.89273   0.96851
 Alpha virt. eigenvalues --    0.96851   0.96851   0.97028   0.97028   0.98009
 Alpha virt. eigenvalues --    1.07007   1.07007   1.07007   1.08592   1.08592
 Alpha virt. eigenvalues --    1.08592   1.11859   1.11859   1.21468   1.21468
 Alpha virt. eigenvalues --    1.21468   1.26389   1.26389   1.31552   1.58967
 Alpha virt. eigenvalues --    1.58967   1.58967   1.61855   1.61855   1.61855
 Alpha virt. eigenvalues --    1.62941   1.72989   1.72989   1.72989   1.86376
 Alpha virt. eigenvalues --    1.86376   1.86376   1.92759   1.92759   1.92759
 Alpha virt. eigenvalues --    2.11609   2.11609   2.11609   2.23964   2.23964
 Alpha virt. eigenvalues --    2.58415   2.90954   3.24984   3.24984   3.24984
 Alpha virt. eigenvalues --    3.48959   3.48959   3.57295   3.57295   3.57295
 Alpha virt. eigenvalues --    3.57537   3.57537   3.57537   3.90741   3.90741
 Alpha virt. eigenvalues --    3.90741   4.05186   4.05186   4.05186   4.06705
 Alpha virt. eigenvalues --    4.06705   4.06705   4.11681   4.11681   4.25440
 Alpha virt. eigenvalues --    4.56961   4.56961   4.56961   4.75722   4.75722
 Alpha virt. eigenvalues --    4.79750   4.79750   4.79750   4.85530   4.85530
 Alpha virt. eigenvalues --    4.85530   5.18518   5.18518   5.18518   5.29954
 Alpha virt. eigenvalues --    5.63367   5.63367   5.63367   5.80879   5.80879
 Alpha virt. eigenvalues --    5.81764   6.21938   6.21938   6.21938   6.60510
 Alpha virt. eigenvalues --    6.60510   6.60510  17.65720
          Condensed to atoms (all electrons):
               1          2          3          4          5
     1  C    5.628615   0.388418   0.388418   0.388418   0.388418
     2  H    0.388418   0.287929   0.009360   0.009360   0.009360
     3  H    0.388418   0.009360   0.287929   0.009360   0.009360
     4  H    0.388418   0.009360   0.009360   0.287929   0.009360
     5  H    0.388418   0.009360   0.009360   0.009360   0.287929
 Mulliken charges:
               1
     1  C   -1.182287
     2  H    0.295572
     3  H    0.295572
     4  H    0.295572
     5  H    0.295572
 Sum of Mulliken charges =   0.00000
 Mulliken charges with hydrogens summed into heavy atoms:
               1
     1  C    0.000000
 Electronic spatial extent (au):  <R**2>=             35.7534
 Charge=              0.0000 electrons
 Dipole moment (field-independent basis, Debye):
    X=             -0.0000    Y=             -0.0000    Z=             -0.0000  Tot=              0.0000
 Quadrupole moment (field-independent basis, Debye-Ang):
   XX=             -8.4209   YY=             -8.4209   ZZ=             -8.4209
   XY=             -0.0000   XZ=             -0.0000   YZ=             -0.0000
 Traceless Quadrupole moment (field-independent basis, Debye-Ang):
   XX=             -0.0000   YY=              0.0000   ZZ=             -0.0000
   XY=             -0.0000   XZ=             -0.0000   YZ=             -0.0000
 Octapole moment (field-independent basis, Debye-Ang**2):
  XXX=             -0.0000  YYY=             -0.0000  ZZZ=             -0.0000  XYY=             -0.0000
  XXY=             -0.0000  XXZ=             -0.0000  XZZ=             -0.0000  YZZ=             -0.0000
  YYZ=             -0.0000  XYZ=              0.7046
 Hexadecapole moment (field-independent basis, Debye-Ang**3):
 XXXX=            -16.7226 YYYY=            -16.7226 ZZZZ=            -16.7226 XXXY=             -0.0000
 XXXZ=             -0.0000 YYYX=             -0.0000 YYYZ=             -0.0000 ZZZX=             -0.0000
 ZZZY=             -0.0000 XXYY=             -5.0064 XXZZ=             -5.0064 YYZZ=             -5.0064
 XXYZ=             -0.0000 YYXZ=             -0.0000 ZZXY=             -0.0000
 N-N= 1.343538925456D+01 E-N=-1.198799600453D+02  KE= 4.014845106287D+01
 Symmetry A    KE= 3.445399611062D+01
 Symmetry B1   KE= 1.898151650749D+00
 Symmetry B2   KE= 1.898151650749D+00
 Symmetry B3   KE= 1.898151650749D+00
 Leave Link  601 at Mon Jan  5 14:58:02 2026, MaxMem=  8589934592 cpu:               0.1 elap:               0.1
 (Enter /uufs/chpc.utah.edu/sys/installdir/gaussian16/C01/AVX2/g16/l114.exe)

 NEF-NEF-NEF-NEF-NEF-NEF-NEF-NEF-NEF-NEF-NEF-NEF-NEF-NEF-NEF-NEF-NEF-NEF-
 NUMERICAL EIGENVECTOR FOLLOWING MINIMUM SEARCH
 NUMERICALLY ESTIMATING GRADIENTS
 ITERATION   0 VARIABLE  1 STEP  1

 NEF-NEF-NEF-NEF-NEF-NEF-NEF-NEF-NEF-NEF-NEF-NEF-NEF-NEF-NEF-NEF-NEF-NEF-
 Leave Link  114 at Mon Jan  5 14:58:02 2026, MaxMem=  8589934592 cpu:               0.0 elap:               0.0
 (Enter /uufs/chpc.utah.edu/sys/installdir/gaussian16/C01/AVX2/g16/l202.exe)
 ---------------------------------------------------------------------------------------------------
                            Z-MATRIX (ANGSTROMS AND DEGREES)
   CD    Cent   Atom    N1       Length/X        N2       Alpha/Y        N3        Beta/Z          J
 ---------------------------------------------------------------------------------------------------
      1      1  C 
      2      2  H        1   1.090520(     1)
      3      3  H        1   1.090520(     2)      2  109.471(     5)
      4      4  H        1   1.090520(     3)      2  109.471(     6)      3  120.000(     8)      0
      5      5  H        1   1.090520(     4)      2  109.471(     7)      4  120.000(     9)      0
 ---------------------------------------------------------------------------------------------------
                         Z-Matrix orientation:                         
 ---------------------------------------------------------------------
 Center     Atomic      Atomic             Coordinates (Angstroms)
 Number     Number       Type             X           Y           Z
 ---------------------------------------------------------------------
      1          6           0        0.000000    0.000000    0.000000
      2          1           0        0.000000    0.000000    1.090520
      3          1           0        1.028152    0.000000   -0.363507
      4          1           0       -0.514076   -0.890406   -0.363507
      5          1           0       -0.514076    0.890406   -0.363507
 ---------------------------------------------------------------------
                    Distance matrix (angstroms):
                    1          2          3          4          5
     1  C    0.000000
     2  H    1.090520   0.000000
     3  H    1.090520   1.780812   0.000000
     4  H    1.090520   1.780812   1.780812   0.000000
     5  H    1.090520   1.780812   1.780812   1.780812   0.000000
 Stoichiometry    CH4
 Framework group  TD[O(C),4C3(H)]
 Deg. of freedom     1
 Prev. full point group           TD      NOp  24
 Prev. largest Abelian subgroup   D2      NOp   4
       concise Abelian subgroup   D2      NOp   4
                   Standard orientation:
 ---------------------------------------------------------------------
 Center     Atomic                     Coordinates (Angstroms)
 Number     Number                        X           Y           Z
 ---------------------------------------------------------------------
      1          6                    0.000000    0.000000    0.000000
      2          1                    1.003953    0.425806    0.000000
      3          1                   -0.334651   -0.141935    1.028152
      4          1                   -0.682321    0.677789   -0.514076
      5          1                    0.013018   -0.961660   -0.514076
 ---------------------------------------------------------------------
 TstSym:  Max error for IOp=  4 IAt=    3 Err= 1.94D+00
 TstSym:  IOp= 25 I=    6 IP=    4 Err= 1.94D+00
  CI=  0.000000000000D+00  0.000000000000D+00  0.000000000000D+00
   T=  6.323990087446D-01  2.682192049336D-01  1.942925728187D+00
 CIP= -1.289399200047D+00  1.280835680333D+00 -9.714628640936D-01
 Unable to use previous symmetry information.  Redetermining point group.
 No symmetry information on checkpoint file.  Reassigning symmetry.
 Stoichiometry    CH4
 Framework group  TD[O(C),4C3(H)]
 Deg. of freedom     1
 Full point group                 TD      NOp  24
 RotChk:  IX=0 Diff= 8.59D-16
 Largest Abelian subgroup         D2      NOp   4
 Largest concise Abelian subgroup D2      NOp   4
                         Standard orientation:                         
 ---------------------------------------------------------------------
 Center     Atomic      Atomic             Coordinates (Angstroms)
 Number     Number       Type             X           Y           Z
 ---------------------------------------------------------------------
      1          6           0        0.000000    0.000000    0.000000
      2          1           0        0.629612    0.629612    0.629612
      3          1           0       -0.629612   -0.629612    0.629612
      4          1           0       -0.629612    0.629612   -0.629612
      5          1           0        0.629612   -0.629612   -0.629612
 ---------------------------------------------------------------------
 Rotational constants (GHZ):         158.1233976         158.1233976         158.1233976
 Leave Link  202 at Mon Jan  5 14:58:02 2026, MaxMem=  8589934592 cpu:               0.0 elap:               0.0
 (Enter /uufs/chpc.utah.edu/sys/installdir/gaussian16/C01/AVX2/g16/l301.exe)
 Standard basis: Aug-CC-pVTZ (5D, 7F)
 Ernie: Thresh=  0.10000D-02 Tol=  0.10000D-17 Strict=F.
 Ernie:  2 primitive shells out of 74 were deleted.
 There are    41 symmetry adapted cartesian basis functions of A   symmetry.
 There are    38 symmetry adapted cartesian basis functions of B1  symmetry.
 There are    38 symmetry adapted cartesian basis functions of B2  symmetry.
 There are    38 symmetry adapted cartesian basis functions of B3  symmetry.
 There are    36 symmetry adapted basis functions of A   symmetry.
 There are    34 symmetry adapted basis functions of B1  symmetry.
 There are    34 symmetry adapted basis functions of B2  symmetry.
 There are    34 symmetry adapted basis functions of B3  symmetry.
   138 basis functions,   181 primitive gaussians,   155 cartesian basis functions
     5 alpha electrons        5 beta electrons
       nuclear repulsion energy        13.4289840495 Hartrees.
 IExCor=    0 DFT=F Ex=HF Corr=None ExCW=0 ScaHFX=  1.000000
 ScaDFX=  1.000000  1.000000  1.000000  1.000000 ScalE2=  1.000000  1.000000
 IRadAn=      5 IRanWt=     -1 IRanGd=            0 ICorTp=0 IEmpDi=  4
 NAtoms=    5 NActive=    5 NUniq=    2 SFac= 4.00D+00 NAtFMM=   60 NAOKFM=F Big=F
 Integral buffers will be    131072 words long.
 Raffenetti 1 integral format.
 Two-electron integral symmetry is turned on.
 Leave Link  301 at Mon Jan  5 14:58:02 2026, MaxMem=  8589934592 cpu:               0.0 elap:               0.1
 (Enter /uufs/chpc.utah.edu/sys/installdir/gaussian16/C01/AVX2/g16/l302.exe)
 NPDir=0 NMtPBC=     1 NCelOv=     1 NCel=       1 NClECP=     1 NCelD=      1
         NCelK=      1 NCelE2=     1 NClLst=     1 CellRange=     0.0.
 One-electron integrals computed using PRISM.
 One-electron integral symmetry used in STVInt
 NBasis=   138 RedAO= T EigKep=  8.34D-05  NBF=    36    34    34    34
 NBsUse=   138 1.00D-06 EigRej= -1.00D+00 NBFU=    36    34    34    34
 Leave Link  302 at Mon Jan  5 14:58:02 2026, MaxMem=  8589934592 cpu:               0.1 elap:               0.1
 (Enter /uufs/chpc.utah.edu/sys/installdir/gaussian16/C01/AVX2/g16/l303.exe)
 DipDrv:  MaxL=1.
 Leave Link  303 at Mon Jan  5 14:58:02 2026, MaxMem=  8589934592 cpu:               0.0 elap:               0.0
 (Enter /uufs/chpc.utah.edu/sys/installdir/gaussian16/C01/AVX2/g16/l401.exe)
 Initial guess from the checkpoint file:  "ch4_ccsdt.chk"
 B after Tr=     0.000000   -0.000000    0.000000
         Rot=    1.000000   -0.000000   -0.000000    0.000000 Ang=   0.00 deg.
 Guess basis will be translated and rotated to current coordinates.
 JPrj=2 DoOrth=T DoCkMO=T.
 Initial guess orbital symmetries:
       Occupied  (A1) (A1) (T2) (T2) (T2)
       Virtual   (A1) (T2) (T2) (T2) (T2) (T2) (T2) (A1) (E) (E)
                 (T2) (T2) (T2) (T2) (T2) (T2) (A1) (T1) (T1) (T1)
                 (T2) (T2) (T2) (A1) (T2) (T2) (T2) (E) (E) (T2)
                 (T2) (T2) (A1) (T2) (T2) (T2) (T1) (T1) (T1) (T2)
                 (T2) (T2) (E) (E) (A1) (T2) (T2) (T2) (T1) (T1)
                 (T1) (E) (E) (T2) (T2) (T2) (E) (E) (A1) (T2)
                 (T2) (T2) (T1) (T1) (T1) (A1) (T2) (T2) (T2) (T2)
                 (T2) (T2) (T1) (T1) (T1) (T2) (T2) (T2) (E) (E)
                 (A1) (A1) (T2) (T2) (T2) (E) (E) (T2) (T2) (T2)
                 (T1) (T1) (T1) (T2) (T2) (T2) (T2) (T2) (T2) (T1)
                 (T1) (T1) (E) (E) (A1) (T2) (T2) (T2) (E) (E)
                 (T2) (T2) (T2) (T1) (T1) (T1) (T2) (T2) (T2) (A1)
                 (T1) (T1) (T1) (E) (E) (A1) (T2) (T2) (T2) (T2)
                 (T2) (T2) (A1)
 The electronic state of the initial guess is 1-A1.
 Generating alternative initial guess.
 ExpMin= 2.53D-02 ExpMax= 8.24D+03 ExpMxC= 2.81D+02 IAcc=3 IRadAn=         5 AccDes= 0.00D+00
 Harris functional with IExCor=  205 and IRadAn=       5 diagonalized for initial guess.
 HarFok:  IExCor=  205 AccDes= 0.00D+00 IRadAn=         5 IDoV= 1 UseB2=F ITyADJ=14
 ICtDFT=  3500011 ScaDFX=  1.000000  1.000000  1.000000  1.000000
 FoFCou: FMM=F IPFlag=           0 FMFlag=      100000 FMFlg1=           0
         NFxFlg=           0 DoJE=T BraDBF=F KetDBF=T FulRan=T
         wScrn=  0.000000 ICntrl=       500 IOpCl=  0 I1Cent=   200000004 NGrid=           0
         NMat0=    1 NMatS0=      1 NMatT0=    0 NMatD0=    1 NMtDS0=    0 NMtDT0=    0
 Petite list used in FoFCou.
 Harris En= -40.3967160754173    
 Leave Link  401 at Mon Jan  5 14:58:03 2026, MaxMem=  8589934592 cpu:               0.3 elap:               0.4
 (Enter /uufs/chpc.utah.edu/sys/installdir/gaussian16/C01/AVX2/g16/l502.exe)
 Keep R1 ints in memory in symmetry-blocked form, NReq=57528360.
 FoFCou: FMM=F IPFlag=           0 FMFlag=           0 FMFlg1=           0
         NFxFlg=           0 DoJE=F BraDBF=F KetDBF=F FulRan=T
         wScrn=  0.000000 ICntrl=       600 IOpCl=  0 I1Cent=           0 NGrid=           0
         NMat0=    1 NMatS0=   9591 NMatT0=    0 NMatD0=    1 NMtDS0=    0 NMtDT0=    0
 Petite list used in FoFCou.
 Closed shell SCF:
 Using DIIS extrapolation, IDIIS=  1040.
 NGot=  8589934592 LenX=  8578355117 LenY=  8578330651
 Requested convergence on RMS density matrix=1.00D-12 within 100 cycles.
 Requested convergence on MAX density matrix=1.00D-10.
 Requested convergence on             energy=1.00D-10.
 No special actions if energy rises.

 Cycle   1  Pass 1  IDiag  1:
 E= -40.2135132117520    
 DIIS: error= 6.38D-05 at cycle   1 NSaved=   1.
 NSaved= 1 IEnMin= 1 EnMin= -40.2135132117520     IErMin= 1 ErrMin= 6.38D-05
 ErrMax= 6.38D-05  0.00D+00 EMaxC= 1.00D-01 BMatC= 3.01D-07 BMatP= 3.01D-07
 IDIUse=1 WtCom= 1.00D+00 WtEn= 0.00D+00
 Coeff-Com:  0.100D+01
 Coeff:      0.100D+01
 Gap=     0.575 Goal=   None    Shift=    0.000
 RMSDP=3.91D-06 MaxDP=1.12D-04              OVMax= 1.98D-04

 Cycle   2  Pass 1  IDiag  1:
 E= -40.2135134613464     Delta-E=       -0.000000249594 Rises=F Damp=F
 DIIS: error= 2.34D-05 at cycle   2 NSaved=   2.
 NSaved= 2 IEnMin= 2 EnMin= -40.2135134613464     IErMin= 2 ErrMin= 2.34D-05
 ErrMax= 2.34D-05  0.00D+00 EMaxC= 1.00D-01 BMatC= 3.29D-08 BMatP= 3.01D-07
 IDIUse=1 WtCom= 1.00D+00 WtEn= 0.00D+00
 Coeff-Com:  0.171D+00 0.829D+00
 Coeff:      0.171D+00 0.829D+00
 Gap=     0.575 Goal=   None    Shift=    0.000
 RMSDP=7.66D-07 MaxDP=3.69D-05 DE=-2.50D-07 OVMax= 4.92D-05

 Cycle   3  Pass 1  IDiag  1:
 E= -40.2135134884469     Delta-E=       -0.000000027101 Rises=F Damp=F
 DIIS: error= 4.70D-06 at cycle   3 NSaved=   3.
 NSaved= 3 IEnMin= 3 EnMin= -40.2135134884469     IErMin= 3 ErrMin= 4.70D-06
 ErrMax= 4.70D-06  0.00D+00 EMaxC= 1.00D-01 BMatC= 9.93D-10 BMatP= 3.29D-08
 IDIUse=1 WtCom= 1.00D+00 WtEn= 0.00D+00
 Coeff-Com: -0.373D-01 0.708D-01 0.966D+00
 Coeff:     -0.373D-01 0.708D-01 0.966D+00
 Gap=     0.575 Goal=   None    Shift=    0.000
 RMSDP=2.66D-07 MaxDP=1.10D-05 DE=-2.71D-08 OVMax= 1.18D-05

 Cycle   4  Pass 1  IDiag  1:
 E= -40.2135134896190     Delta-E=       -0.000000001172 Rises=F Damp=F
 DIIS: error= 6.47D-07 at cycle   4 NSaved=   4.
 NSaved= 4 IEnMin= 4 EnMin= -40.2135134896190     IErMin= 4 ErrMin= 6.47D-07
 ErrMax= 6.47D-07  0.00D+00 EMaxC= 1.00D-01 BMatC= 8.84D-12 BMatP= 9.93D-10
 IDIUse=1 WtCom= 1.00D+00 WtEn= 0.00D+00
 Coeff-Com:  0.765D-02-0.246D-01-0.221D+00 0.124D+01
 Coeff:      0.765D-02-0.246D-01-0.221D+00 0.124D+01
 Gap=     0.575 Goal=   None    Shift=    0.000
 DSYEVD-2 returned Info=          73 IAlg= 4 N=    36 NDim=   138 NE2=    62161815 trying  DSYEV.
 RMSDP=3.89D-08 MaxDP=1.89D-06 DE=-1.17D-09 OVMax= 1.91D-06

 Cycle   5  Pass 1  IDiag  1:
 E= -40.2135134896349     Delta-E=       -0.000000000016 Rises=F Damp=F
 DIIS: error= 7.56D-08 at cycle   5 NSaved=   5.
 NSaved= 5 IEnMin= 5 EnMin= -40.2135134896349     IErMin= 5 ErrMin= 7.56D-08
 ErrMax= 7.56D-08  0.00D+00 EMaxC= 1.00D-01 BMatC= 6.79D-14 BMatP= 8.84D-12
 IDIUse=1 WtCom= 1.00D+00 WtEn= 0.00D+00
 Coeff-Com: -0.787D-03 0.258D-02 0.257D-01-0.195D+00 0.117D+01
 Coeff:     -0.787D-03 0.258D-02 0.257D-01-0.195D+00 0.117D+01
 Gap=     0.575 Goal=   None    Shift=    0.000
 RMSDP=4.99D-09 MaxDP=1.44D-07 DE=-1.59D-11 OVMax= 1.88D-07

 Cycle   6  Pass 1  IDiag  1:
 E= -40.2135134896348     Delta-E=        0.000000000000 Rises=F Damp=F
 DIIS: error= 4.11D-09 at cycle   6 NSaved=   6.
 NSaved= 6 IEnMin= 5 EnMin= -40.2135134896349     IErMin= 6 ErrMin= 4.11D-09
 ErrMax= 4.11D-09  0.00D+00 EMaxC= 1.00D-01 BMatC= 3.19D-16 BMatP= 6.79D-14
 IDIUse=1 WtCom= 1.00D+00 WtEn= 0.00D+00
 Coeff-Com:  0.606D-04-0.184D-03-0.226D-02 0.197D-01-0.174D+00 0.116D+01
 Coeff:      0.606D-04-0.184D-03-0.226D-02 0.197D-01-0.174D+00 0.116D+01
 Gap=     0.575 Goal=   None    Shift=    0.000
 RMSDP=6.94D-10 MaxDP=1.24D-08 DE= 5.68D-14 OVMax= 1.22D-08

 Cycle   7  Pass 1  IDiag  1:
 E= -40.2135134896351     Delta-E=       -0.000000000000 Rises=F Damp=F
 DIIS: error= 1.35D-10 at cycle   7 NSaved=   7.
 NSaved= 7 IEnMin= 7 EnMin= -40.2135134896351     IErMin= 7 ErrMin= 1.35D-10
 ErrMax= 1.35D-10  0.00D+00 EMaxC= 1.00D-01 BMatC= 9.10D-19 BMatP= 3.19D-16
 IDIUse=1 WtCom= 1.00D+00 WtEn= 0.00D+00
 Coeff-Com: -0.607D-05 0.178D-04 0.233D-03-0.209D-02 0.199D-01-0.162D+00
 Coeff-Com:  0.114D+01
 Coeff:     -0.607D-05 0.178D-04 0.233D-03-0.209D-02 0.199D-01-0.162D+00
 Coeff:      0.114D+01
 Gap=     0.575 Goal=   None    Shift=    0.000
 RMSDP=3.04D-11 MaxDP=1.29D-09 DE=-2.70D-13 OVMax= 5.49D-10

 Cycle   8  Pass 1  IDiag  1:
 E= -40.2135134896350     Delta-E=        0.000000000000 Rises=F Damp=F
 DIIS: error= 2.17D-11 at cycle   8 NSaved=   8.
 NSaved= 8 IEnMin= 7 EnMin= -40.2135134896351     IErMin= 8 ErrMin= 2.17D-11
 ErrMax= 2.17D-11  0.00D+00 EMaxC= 1.00D-01 BMatC= 1.21D-20 BMatP= 9.10D-19
 IDIUse=1 WtCom= 1.00D+00 WtEn= 0.00D+00
 Coeff-Com:  0.121D-05-0.335D-05-0.473D-04 0.428D-03-0.418D-02 0.357D-01
 Coeff-Com: -0.287D+00 0.125D+01
 Coeff:      0.121D-05-0.335D-05-0.473D-04 0.428D-03-0.418D-02 0.357D-01
 Coeff:     -0.287D+00 0.125D+01
 Gap=     0.575 Goal=   None    Shift=    0.000
 RMSDP=4.12D-12 MaxDP=5.88D-11 DE= 2.13D-14 OVMax= 7.89D-11

 Cycle   9  Pass 1  IDiag  1:
 E= -40.2135134896351     Delta-E=       -0.000000000000 Rises=F Damp=F
 DIIS: error= 3.57D-12 at cycle   9 NSaved=   9.
 NSaved= 9 IEnMin= 7 EnMin= -40.2135134896351     IErMin= 9 ErrMin= 3.57D-12
 ErrMax= 3.57D-12  0.00D+00 EMaxC= 1.00D-01 BMatC= 3.62D-22 BMatP= 1.21D-20
 IDIUse=1 WtCom= 1.00D+00 WtEn= 0.00D+00
 Coeff-Com: -0.269D-06 0.774D-06 0.105D-04-0.959D-04 0.929D-03-0.795D-02
 Coeff-Com:  0.675D-01-0.381D+00 0.132D+01
 Coeff:     -0.269D-06 0.774D-06 0.105D-04-0.959D-04 0.929D-03-0.795D-02
 Coeff:      0.675D-01-0.381D+00 0.132D+01
 Gap=     0.575 Goal=   None    Shift=    0.000
 RMSDP=4.41D-13 MaxDP=2.68D-11 DE=-1.42D-14 OVMax= 1.38D-11

 SCF Done:  E(RHF) =  -40.2135134896     A.U. after    9 cycles
            NFock=  9  Conv=0.44D-12     -V/T= 2.0017
 KE= 4.014548895400D+01 PE=-1.198648510233D+02 EE= 2.607686453018D+01
 Leave Link  502 at Mon Jan  5 14:58:09 2026, MaxMem=  8589934592 cpu:               6.0 elap:               6.1
 (Enter /uufs/chpc.utah.edu/sys/installdir/gaussian16/C01/AVX2/g16/l801.exe)
 Windowed orbitals will be sorted by symmetry type.
 ExpMin= 2.53D-02 ExpMax= 8.24D+03 ExpMxC= 2.81D+02 IAcc=3 IRadAn=         5 AccDes= 0.00D+00
 HarFok:  IExCor=  205 AccDes= 0.00D+00 IRadAn=         5 IDoV=-2 UseB2=F ITyADJ=14
 ICtDFT= 12500011 ScaDFX=  1.000000  1.000000  1.000000  1.000000
 Largest valence mixing into a core orbital is  1.88D-04
 Largest core mixing into a valence orbital is  2.67D-05
 Range of M.O.s used for correlation:     2   138
 NBasis=   138 NAE=     5 NBE=     5 NFC=     1 NFV=     0
 NROrb=    137 NOA=     4 NOB=     4 NVA=   133 NVB=   133

 **** Warning!!: The largest alpha MO coefficient is  0.57736641D+02

 Leave Link  801 at Mon Jan  5 14:58:09 2026, MaxMem=  8589934592 cpu:               0.2 elap:               0.2
 (Enter /uufs/chpc.utah.edu/sys/installdir/gaussian16/C01/AVX2/g16/l804.exe)
 Closed-shell transformation, MDV=  8589934592 ITran=4 ISComp=2.
 Semi-Direct transformation.
 ModeAB=           4 MOrb=             4 LenV=    8572823000
 LASXX=      1252303 LTotXX=     1252303 LenRXX=     2531958
 LTotAB=     1279655 MaxLAS=     2475864 LenRXY=           0
 NonZer=     3784261 LenScr=     6382080 LnRSAI=     2475864
 LnScr1=     4454400 LExtra=           0 Total=     15844302
 MaxDsk=          -1 SrtSym=           T ITran=            4
 DoSDTr:  NPSUse=  1
 JobTyp=0 Pass  1:  I=   1 to   4.
 (rs|ai) integrals will be sorted in core.
 Complete sort for first half transformation.
 First half transformation complete.
 Complete sort for second half transformation.
 Second half transformation complete.
 Spin components of T(2) and E(2):
     alpha-alpha T2 =       0.6192070439D-02 E2=     -0.1830735314D-01
     alpha-beta  T2 =       0.4952382367D-01 E2=     -0.1642830150D+00
     beta-beta   T2 =       0.6192070439D-02 E2=     -0.1830735314D-01
 ANorm=    0.1030489187D+01
 E2 =    -0.2008977213D+00 EUMP2 =    -0.40414411210902D+02
 Leave Link  804 at Mon Jan  5 14:58:12 2026, MaxMem=  8589934592 cpu:               3.1 elap:               3.1
 (Enter /uufs/chpc.utah.edu/sys/installdir/gaussian16/C01/AVX2/g16/l913.exe)
 CIDS:  MDV=  8589934592.
 Frozen-core window:  NFC=   1 NFV=   0.
 IFCWin=0 IBDFC=1 NFBD=     0     0 NFCmp=     0     0 NFFFC=     0     0
 Using DD3R+UMP44R for 1st iteration.
 Using DD4RQ for 2nd and later iterations.
 Keep R2 and R3 ints in memory in symmetry-blocked form, NReq=57533230.
 FoFCou: FMM=F IPFlag=           0 FMFlag=           0 FMFlg1=           0
         NFxFlg=           0 DoJE=F BraDBF=F KetDBF=F FulRan=T
         wScrn=  0.000000 ICntrl=       600 IOpCl=  0 I1Cent=           0 NGrid=           0
         NMat0=    1 NMatS0=   9591 NMatT0=    0 NMatD0=    1 NMtDS0=    0 NMtDT0=    0
 Petite list used in FoFCou.
 CIDS: In Core Option IDoMem=           1.
 CCSD(T)
 =======
 Iterations= 200 Convergence= 0.100D-09
 Produce multiple copies of IABC intergrals
 Iteration Nr.   1
 **********************
 DD1Dir will call FoFMem   1 times, MxPair=        20
 NAB=    10 NAA=     0 NBB=     0.
 MP4(R+Q)=  0.40571037D-02
 Maximum subspace dimension=  5
 A-vector RMS=  1.6404492D-03 Max=  4.5386579D-03 conv= 1.00D-08.
 RLE energy=       -0.2159255550
 E3=       -0.18119721D-01        EUMP3=      -0.40432530932D+02
 E4(DQ)=   -0.83942282D-03        UMP4(DQ)=   -0.40433370355D+02
 E4(SDQ)=  -0.18210586D-02        UMP4(SDQ)=  -0.40434351991D+02
 VARIATIONAL ENERGIES WITH THE FIRST-ORDER WAVEFUNCTION:
 DE(Corr)= -0.21487969     E(Corr)=     -40.428393183    
 NORM(A)=   0.10366541D+01
 Iteration Nr.   2
 **********************
 DD1Dir will call FoFMem   1 times, MxPair=        20
 NAB=    10 NAA=     0 NBB=     0.
 A-vector RMS=  2.5272597D-04 Max=  6.8053143D-04 conv= 1.00D-08.
 RLE energy=       -0.2205832864
 DE(Corr)= -0.21964179     E(CORR)=     -40.433155280     Delta=-4.76D-03
 NORM(A)=   0.10388981D+01
 Iteration Nr.   3
 **********************
 DD1Dir will call FoFMem   1 times, MxPair=        20
 NAB=    10 NAA=     0 NBB=     0.
 A-vector RMS=  1.2052970D-04 Max=  4.0900279D-04 conv= 1.00D-08.
 RLE energy=       -0.2208025677
 DE(Corr)= -0.22054928     E(CORR)=     -40.434062765     Delta=-9.07D-04
 NORM(A)=   0.10392742D+01
 Iteration Nr.   4
 **********************
 DD1Dir will call FoFMem   1 times, MxPair=        20
 NAB=    10 NAA=     0 NBB=     0.
 A-vector RMS=  1.8320584D-05 Max=  5.8248460D-05 conv= 1.00D-08.
 RLE energy=       -0.2208534751
 DE(Corr)= -0.22083044     E(CORR)=     -40.434343933     Delta=-2.81D-04
 NORM(A)=   0.10393331D+01
 Iteration Nr.   5
 **********************
 DD1Dir will call FoFMem   1 times, MxPair=        20
 NAB=    10 NAA=     0 NBB=     0.
 A-vector RMS=  5.0685781D-06 Max=  1.9526149D-05 conv= 1.00D-08.
 RLE energy=       -0.2208514938
 DE(Corr)= -0.22084974     E(CORR)=     -40.434363229     Delta=-1.93D-05
 NORM(A)=   0.10393356D+01
 Iteration Nr.   6
 **********************
 DD1Dir will call FoFMem   1 times, MxPair=        20
 NAB=    10 NAA=     0 NBB=     0.
 A-vector RMS=  1.1615843D-06 Max=  5.8578456D-06 conv= 1.00D-08.
 RLE energy=       -0.2208491490
 DE(Corr)= -0.22085046     E(CORR)=     -40.434363950     Delta=-7.21D-07
 NORM(A)=   0.10393348D+01
 Iteration Nr.   7
 **********************
 DD1Dir will call FoFMem   1 times, MxPair=        20
 NAB=    10 NAA=     0 NBB=     0.
 A-vector RMS=  2.9757517D-07 Max=  1.5729840D-06 conv= 1.00D-08.
 RLE energy=       -0.2208502694
 DE(Corr)= -0.22085033     E(CORR)=     -40.434363816     Delta= 1.34D-07
 NORM(A)=   0.10393349D+01
 Iteration Nr.   8
 **********************
 DD1Dir will call FoFMem   1 times, MxPair=        20
 NAB=    10 NAA=     0 NBB=     0.
 A-vector RMS=  1.3073585D-07 Max=  5.0073286D-07 conv= 1.00D-08.
 RLE energy=       -0.2208502481
 DE(Corr)= -0.22085027     E(CORR)=     -40.434363755     Delta= 6.15D-08
 NORM(A)=   0.10393349D+01
 Iteration Nr.   9
 **********************
 DD1Dir will call FoFMem   1 times, MxPair=        20
 NAB=    10 NAA=     0 NBB=     0.
 A-vector RMS=  3.5395780D-08 Max=  1.8157800D-07 conv= 1.00D-08.
 RLE energy=       -0.2208503558
 DE(Corr)= -0.22085034     E(CORR)=     -40.434363833     Delta=-7.83D-08
 NORM(A)=   0.10393349D+01
 Iteration Nr.  10
 **********************
 DD1Dir will call FoFMem   1 times, MxPair=        20
 NAB=    10 NAA=     0 NBB=     0.
 A-vector RMS=  1.0104090D-08 Max=  5.8297269D-08 conv= 1.00D-08.
 RLE energy=       -0.2208503667
 DE(Corr)= -0.22085036     E(CORR)=     -40.434363850     Delta=-1.65D-08
 NORM(A)=   0.10393350D+01
 Iteration Nr.  11
 **********************
 DD1Dir will call FoFMem   1 times, MxPair=        20
 NAB=    10 NAA=     0 NBB=     0.
 A-vector RMS=  3.4618996D-09 Max=  1.9358100D-08 conv= 1.00D-08.
 RLE energy=       -0.2208503723
 DE(Corr)= -0.22085037     E(CORR)=     -40.434363860     Delta=-1.03D-08
 NORM(A)=   0.10393350D+01
 Iteration Nr.  12
 **********************
 DD1Dir will call FoFMem   1 times, MxPair=        20
 NAB=    10 NAA=     0 NBB=     0.
 A-vector RMS=  8.2940922D-10 Max=  3.6903505D-09 conv= 1.00D-08.
 RLE energy=       -0.2208503747
 DE(Corr)= -0.22085037     E(CORR)=     -40.434363863     Delta=-3.11D-09
 NORM(A)=   0.10393350D+01
 Iteration Nr.  13
 **********************
 DD1Dir will call FoFMem   1 times, MxPair=        20
 NAB=    10 NAA=     0 NBB=     0.
 A-vector RMS=  3.5834147D-10 Max=  1.2683458D-09 conv= 1.00D-08.
 RLE energy=       -0.2208503747
 DE(Corr)= -0.22085037     E(CORR)=     -40.434363864     Delta=-9.43D-10
 NORM(A)=   0.10393350D+01
 Iteration Nr.  14
 **********************
 DD1Dir will call FoFMem   1 times, MxPair=        20
 NAB=    10 NAA=     0 NBB=     0.
 A-vector RMS=  2.6957104D-10 Max=  9.7924605D-10 conv= 1.00D-08.
 RLE energy=       -0.2208503744
 DE(Corr)= -0.22085037     E(CORR)=     -40.434363864     Delta=-7.78D-11
 NORM(A)=   0.10393350D+01
 CI/CC converged in   14 iterations to DelEn=-7.78D-11 Conv= 1.00D-10 ErrA1= 2.70D-10 Conv= 1.00D-08
 Wavefunction amplitudes converged. E(Corr)=     -40.434363864    
 T1 Diagnostic =     0.00754218
 Largest amplitude= 1.39D-02
 IPart=  1 IA=    8   10.29% done.
 IPart=  1 IA=   15   20.02% done.
 IPart=  1 IA=   23   30.45% done.
 IPart=  1 IA=   31   40.16% done.
 IPart=  1 IA=   40   50.21% done.
 IPart=  1 IA=   50   60.29% done.
 IPart=  1 IA=   61   70.06% done.
 IPart=  1 IA=   75   80.51% done.
 IPart=  1 IA=   92   90.19% done.
 Time for triples=       15.56 seconds.
 T4(CCSD)= -0.67623977D-02
 T5(CCSD)=  0.19698658D-03
 CCSD(T)= -0.40440929275D+02
 Discarding MO integrals.
 Leave Link  913 at Mon Jan  5 14:58:43 2026, MaxMem=  8589934592 cpu:              30.6 elap:              30.7
 (Enter /uufs/chpc.utah.edu/sys/installdir/gaussian16/C01/AVX2/g16/l114.exe)

 NEF-NEF-NEF-NEF-NEF-NEF-NEF-NEF-NEF-NEF-NEF-NEF-NEF-NEF-NEF-NEF-NEF-NEF-
 NUMERICAL EIGENVECTOR FOLLOWING MINIMUM SEARCH
 NUMERICALLY ESTIMATING GRADIENTS
 ITERATION   0 VARIABLE  1 STEP  2

 NEF-NEF-NEF-NEF-NEF-NEF-NEF-NEF-NEF-NEF-NEF-NEF-NEF-NEF-NEF-NEF-NEF-NEF-
 Leave Link  114 at Mon Jan  5 14:58:43 2026, MaxMem=  8589934592 cpu:               0.0 elap:               0.0
 (Enter /uufs/chpc.utah.edu/sys/installdir/gaussian16/C01/AVX2/g16/l202.exe)
 ---------------------------------------------------------------------------------------------------
                            Z-MATRIX (ANGSTROMS AND DEGREES)
   CD    Cent   Atom    N1       Length/X        N2       Alpha/Y        N3        Beta/Z          J
 ---------------------------------------------------------------------------------------------------
      1      1  C 
      2      2  H        1   1.089480(     1)
      3      3  H        1   1.089480(     2)      2  109.471(     5)
      4      4  H        1   1.089480(     3)      2  109.471(     6)      3  120.000(     8)      0
      5      5  H        1   1.089480(     4)      2  109.471(     7)      4  120.000(     9)      0
 ---------------------------------------------------------------------------------------------------
                         Z-Matrix orientation:                         
 ---------------------------------------------------------------------
 Center     Atomic      Atomic             Coordinates (Angstroms)
 Number     Number       Type             X           Y           Z
 ---------------------------------------------------------------------
      1          6           0        0.000000    0.000000    0.000000
      2          1           0        0.000000    0.000000    1.089480
      3          1           0        1.027172    0.000000   -0.363160
      4          1           0       -0.513586   -0.889557   -0.363160
      5          1           0       -0.513586    0.889557   -0.363160
 ---------------------------------------------------------------------
                    Distance matrix (angstroms):
                    1          2          3          4          5
     1  C    0.000000
     2  H    1.089480   0.000000
     3  H    1.089480   1.779114   0.000000
     4  H    1.089480   1.779114   1.779114   0.000000
     5  H    1.089480   1.779114   1.779114   1.779114   0.000000
 Stoichiometry    CH4
 Framework group  TD[O(C),4C3(H)]
 Deg. of freedom     1
 Prev. full point group           TD      NOp  24
 Prev. largest Abelian subgroup   D2      NOp   4
       concise Abelian subgroup   D2      NOp   4
                   Standard orientation:
 ---------------------------------------------------------------------
 Center     Atomic                     Coordinates (Angstroms)
 Number     Number                        X           Y           Z
 ---------------------------------------------------------------------
      1          6                    0.000000    0.000000    0.000000
      2          1                    0.932143    0.563983    0.000000
      3          1                   -0.310714   -0.187994    1.027172
      4          1                   -0.771204    0.573097   -0.513586
      5          1                    0.149776   -0.949086   -0.513586
 ---------------------------------------------------------------------
 TstSym:  Max error for IOp= 23 IAt=    3 Err= 1.94D+00
 TstSym:  IOp= 25 I=    6 IP=    4 Err= 1.94D+00
  CI=  0.000000000000D+00  0.000000000000D+00  0.000000000000D+00
   T=  3.552577157713D-01  5.871648769708D-01  1.941073182264D+00
 CIP= -1.457365007797D+00  1.082996627691D+00 -9.705365911321D-01
 Unable to use previous symmetry information.  Redetermining point group.
 No symmetry information on checkpoint file.  Reassigning symmetry.
 Stoichiometry    CH4
 Framework group  TD[O(C),4C3(H)]
 Deg. of freedom     1
 Full point group                 TD      NOp  24
 RotChk:  IX=0 Diff= 1.11D-15
 Largest Abelian subgroup         D2      NOp   4
 Largest concise Abelian subgroup D2      NOp   4
                         Standard orientation:                         
 ---------------------------------------------------------------------
 Center     Atomic      Atomic             Coordinates (Angstroms)
 Number     Number       Type             X           Y           Z
 ---------------------------------------------------------------------
      1          6           0        0.000000    0.000000    0.000000
      2          1           0        0.629012    0.629012    0.629012
      3          1           0       -0.629012   -0.629012    0.629012
      4          1           0       -0.629012    0.629012   -0.629012
      5          1           0        0.629012   -0.629012   -0.629012
 ---------------------------------------------------------------------
 Rotational constants (GHZ):         158.4253652         158.4253652         158.4253652
 Leave Link  202 at Mon Jan  5 14:58:43 2026, MaxMem=  8589934592 cpu:               0.0 elap:               0.0
 (Enter /uufs/chpc.utah.edu/sys/installdir/gaussian16/C01/AVX2/g16/l301.exe)
 Standard basis: Aug-CC-pVTZ (5D, 7F)
 Ernie: Thresh=  0.10000D-02 Tol=  0.10000D-17 Strict=F.
 Ernie:  2 primitive shells out of 74 were deleted.
 There are    41 symmetry adapted cartesian basis functions of A   symmetry.
 There are    38 symmetry adapted cartesian basis functions of B1  symmetry.
 There are    38 symmetry adapted cartesian basis functions of B2  symmetry.
 There are    38 symmetry adapted cartesian basis functions of B3  symmetry.
 There are    36 symmetry adapted basis functions of A   symmetry.
 There are    34 symmetry adapted basis functions of B1  symmetry.
 There are    34 symmetry adapted basis functions of B2  symmetry.
 There are    34 symmetry adapted basis functions of B3  symmetry.
   138 basis functions,   181 primitive gaussians,   155 cartesian basis functions
     5 alpha electrons        5 beta electrons
       nuclear repulsion energy        13.4418005727 Hartrees.
 IExCor=    0 DFT=F Ex=HF Corr=None ExCW=0 ScaHFX=  1.000000
 ScaDFX=  1.000000  1.000000  1.000000  1.000000 ScalE2=  1.000000  1.000000
 IRadAn=      5 IRanWt=     -1 IRanGd=            0 ICorTp=0 IEmpDi=  4
 NAtoms=    5 NActive=    5 NUniq=    2 SFac= 4.00D+00 NAtFMM=   60 NAOKFM=F Big=F
 Integral buffers will be    131072 words long.
 Raffenetti 1 integral format.
 Two-electron integral symmetry is turned on.
 Leave Link  301 at Mon Jan  5 14:58:43 2026, MaxMem=  8589934592 cpu:               0.1 elap:               0.1
 (Enter /uufs/chpc.utah.edu/sys/installdir/gaussian16/C01/AVX2/g16/l302.exe)
 NPDir=0 NMtPBC=     1 NCelOv=     1 NCel=       1 NClECP=     1 NCelD=      1
         NCelK=      1 NCelE2=     1 NClLst=     1 CellRange=     0.0.
 One-electron integrals computed using PRISM.
 One-electron integral symmetry used in STVInt
 NBasis=   138 RedAO= T EigKep=  8.30D-05  NBF=    36    34    34    34
 NBsUse=   138 1.00D-06 EigRej= -1.00D+00 NBFU=    36    34    34    34
 Leave Link  302 at Mon Jan  5 14:58:43 2026, MaxMem=  8589934592 cpu:               0.1 elap:               0.1
 (Enter /uufs/chpc.utah.edu/sys/installdir/gaussian16/C01/AVX2/g16/l303.exe)
 DipDrv:  MaxL=1.
 Leave Link  303 at Mon Jan  5 14:58:43 2026, MaxMem=  8589934592 cpu:               0.0 elap:               0.0
 (Enter /uufs/chpc.utah.edu/sys/installdir/gaussian16/C01/AVX2/g16/l401.exe)
 Initial guess from the checkpoint file:  "ch4_ccsdt.chk"
 B after Tr=     0.000000    0.000000    0.000000
         Rot=    1.000000   -0.000000   -0.000000   -0.000000 Ang=   0.00 deg.
 Guess basis will be translated and rotated to current coordinates.
 JPrj=2 DoOrth=T DoCkMO=T.
 Initial guess orbital symmetries:
       Occupied  (A1) (A1) (T2) (T2) (T2)
       Virtual   (A1) (T2) (T2) (T2) (T2) (T2) (T2) (A1) (E) (E)
                 (T2) (T2) (T2) (T2) (T2) (T2) (A1) (T1) (T1) (T1)
                 (T2) (T2) (T2) (A1) (T2) (T2) (T2) (E) (E) (T2)
                 (T2) (T2) (A1) (T2) (T2) (T2) (T1) (T1) (T1) (T2)
                 (T2) (T2) (E) (E) (A1) (T2) (T2) (T2) (T1) (T1)
                 (T1) (E) (E) (T2) (T2) (T2) (E) (E) (A1) (T2)
                 (T2) (T2) (T1) (T1) (T1) (A1) (T2) (T2) (T2) (T2)
                 (T2) (T2) (T1) (T1) (T1) (T2) (T2) (T2) (E) (E)
                 (A1) (A1) (T2) (T2) (T2) (E) (E) (T2) (T2) (T2)
                 (T1) (T1) (T1) (T2) (T2) (T2) (T2) (T2) (T2) (T1)
                 (T1) (T1) (E) (E) (A1) (T2) (T2) (T2) (E) (E)
                 (T2) (T2) (T2) (T1) (T1) (T1) (T2) (T2) (T2) (A1)
                 (T1) (T1) (T1) (E) (E) (A1) (T2) (T2) (T2) (T2)
                 (T2) (T2) (A1)
 The electronic state of the initial guess is 1-A1.
 Generating alternative initial guess.
 ExpMin= 2.53D-02 ExpMax= 8.24D+03 ExpMxC= 2.81D+02 IAcc=3 IRadAn=         5 AccDes= 0.00D+00
 Harris functional with IExCor=  205 and IRadAn=       5 diagonalized for initial guess.
 HarFok:  IExCor=  205 AccDes= 0.00D+00 IRadAn=         5 IDoV= 1 UseB2=F ITyADJ=14
 ICtDFT=  3500011 ScaDFX=  1.000000  1.000000  1.000000  1.000000
 FoFCou: FMM=F IPFlag=           0 FMFlag=      100000 FMFlg1=           0
         NFxFlg=           0 DoJE=T BraDBF=F KetDBF=T FulRan=T
         wScrn=  0.000000 ICntrl=       500 IOpCl=  0 I1Cent=   200000004 NGrid=           0
         NMat0=    1 NMatS0=      1 NMatT0=    0 NMatD0=    1 NMtDS0=    0 NMtDT0=    0
 Petite list used in FoFCou.
 Harris En= -40.3971163951287    
 Leave Link  401 at Mon Jan  5 14:58:44 2026, MaxMem=  8589934592 cpu:               0.3 elap:               0.4
 (Enter /uufs/chpc.utah.edu/sys/installdir/gaussian16/C01/AVX2/g16/l502.exe)
 Keep R1 ints in memory in symmetry-blocked form, NReq=57528360.
 FoFCou: FMM=F IPFlag=           0 FMFlag=           0 FMFlg1=           0
         NFxFlg=           0 DoJE=F BraDBF=F KetDBF=F FulRan=T
         wScrn=  0.000000 ICntrl=       600 IOpCl=  0 I1Cent=           0 NGrid=           0
         NMat0=    1 NMatS0=   9591 NMatT0=    0 NMatD0=    1 NMtDS0=    0 NMtDT0=    0
 Petite list used in FoFCou.
 Closed shell SCF:
 Using DIIS extrapolation, IDIIS=  1040.
 NGot=  8589934592 LenX=  8578355117 LenY=  8578330651
 Requested convergence on RMS density matrix=1.00D-12 within 100 cycles.
 Requested convergence on MAX density matrix=1.00D-10.
 Requested convergence on             energy=1.00D-10.
 No special actions if energy rises.

 Cycle   1  Pass 1  IDiag  1:
 E= -40.2135558932022    
 DIIS: error= 1.28D-04 at cycle   1 NSaved=   1.
 NSaved= 1 IEnMin= 1 EnMin= -40.2135558932022     IErMin= 1 ErrMin= 1.28D-04
 ErrMax= 1.28D-04  0.00D+00 EMaxC= 1.00D-01 BMatC= 1.20D-06 BMatP= 1.20D-06
 IDIUse=3 WtCom= 9.99D-01 WtEn= 1.28D-03
 Coeff-Com:  0.100D+01
 Coeff-En:   0.100D+01
 Coeff:      0.100D+01
 Gap=     0.576 Goal=   None    Shift=    0.000
 RMSDP=7.82D-06 MaxDP=2.23D-04              OVMax= 3.96D-04

 Cycle   2  Pass 1  IDiag  1:
 E= -40.2135568917918     Delta-E=       -0.000000998590 Rises=F Damp=F
 DIIS: error= 4.67D-05 at cycle   2 NSaved=   2.
 NSaved= 2 IEnMin= 2 EnMin= -40.2135568917918     IErMin= 2 ErrMin= 4.67D-05
 ErrMax= 4.67D-05  0.00D+00 EMaxC= 1.00D-01 BMatC= 1.32D-07 BMatP= 1.20D-06
 IDIUse=1 WtCom= 1.00D+00 WtEn= 0.00D+00
 Coeff-Com:  0.171D+00 0.829D+00
 Coeff:      0.171D+00 0.829D+00
 Gap=     0.575 Goal=   None    Shift=    0.000
 RMSDP=1.53D-06 MaxDP=7.37D-05 DE=-9.99D-07 OVMax= 9.82D-05

 Cycle   3  Pass 1  IDiag  1:
 E= -40.2135570001106     Delta-E=       -0.000000108319 Rises=F Damp=F
 DIIS: error= 9.37D-06 at cycle   3 NSaved=   3.
 NSaved= 3 IEnMin= 3 EnMin= -40.2135570001106     IErMin= 3 ErrMin= 9.37D-06
 ErrMax= 9.37D-06  0.00D+00 EMaxC= 1.00D-01 BMatC= 3.96D-09 BMatP= 1.32D-07
 IDIUse=1 WtCom= 1.00D+00 WtEn= 0.00D+00
 Coeff-Com: -0.372D-01 0.706D-01 0.967D+00
 Coeff:     -0.372D-01 0.706D-01 0.967D+00
 Gap=     0.575 Goal=   None    Shift=    0.000
 RMSDP=5.32D-07 MaxDP=2.19D-05 DE=-1.08D-07 OVMax= 2.36D-05

 Cycle   4  Pass 1  IDiag  1:
 E= -40.2135570047810     Delta-E=       -0.000000004670 Rises=F Damp=F
 DIIS: error= 1.29D-06 at cycle   4 NSaved=   4.
 NSaved= 4 IEnMin= 4 EnMin= -40.2135570047810     IErMin= 4 ErrMin= 1.29D-06
 ErrMax= 1.29D-06  0.00D+00 EMaxC= 1.00D-01 BMatC= 3.52D-11 BMatP= 3.96D-09
 IDIUse=1 WtCom= 1.00D+00 WtEn= 0.00D+00
 Coeff-Com:  0.763D-02-0.245D-01-0.220D+00 0.124D+01
 Coeff:      0.763D-02-0.245D-01-0.220D+00 0.124D+01
 Gap=     0.575 Goal=   None    Shift=    0.000
 RMSDP=7.77D-08 MaxDP=3.78D-06 DE=-4.67D-09 OVMax= 3.80D-06

 Cycle   5  Pass 1  IDiag  1:
 E= -40.2135570048437     Delta-E=       -0.000000000063 Rises=F Damp=F
 DIIS: error= 1.51D-07 at cycle   5 NSaved=   5.
 NSaved= 5 IEnMin= 5 EnMin= -40.2135570048437     IErMin= 5 ErrMin= 1.51D-07
 ErrMax= 1.51D-07  0.00D+00 EMaxC= 1.00D-01 BMatC= 2.72D-13 BMatP= 3.52D-11
 IDIUse=1 WtCom= 1.00D+00 WtEn= 0.00D+00
 Coeff-Com: -0.782D-03 0.256D-02 0.256D-01-0.194D+00 0.117D+01
 Coeff:     -0.782D-03 0.256D-02 0.256D-01-0.194D+00 0.117D+01
 Gap=     0.575 Goal=   None    Shift=    0.000
 RMSDP=1.00D-08 MaxDP=2.86D-07 DE=-6.27D-11 OVMax= 3.74D-07

 Cycle   6  Pass 1  IDiag  1:
 E= -40.2135570048445     Delta-E=       -0.000000000001 Rises=F Damp=F
 DIIS: error= 8.16D-09 at cycle   6 NSaved=   6.
 NSaved= 6 IEnMin= 6 EnMin= -40.2135570048445     IErMin= 6 ErrMin= 8.16D-09
 ErrMax= 8.16D-09  0.00D+00 EMaxC= 1.00D-01 BMatC= 1.28D-15 BMatP= 2.72D-13
 IDIUse=1 WtCom= 1.00D+00 WtEn= 0.00D+00
 Coeff-Com:  0.598D-04-0.181D-03-0.225D-02 0.196D-01-0.173D+00 0.116D+01
 Coeff:      0.598D-04-0.181D-03-0.225D-02 0.196D-01-0.173D+00 0.116D+01
 Gap=     0.575 Goal=   None    Shift=    0.000
 RMSDP=1.40D-09 MaxDP=2.47D-08 DE=-7.82D-13 OVMax= 2.43D-08

 Cycle   7  Pass 1  IDiag  1:
 E= -40.2135570048444     Delta-E=        0.000000000000 Rises=F Damp=F
 DIIS: error= 2.92D-10 at cycle   7 NSaved=   7.
 NSaved= 7 IEnMin= 6 EnMin= -40.2135570048445     IErMin= 7 ErrMin= 2.92D-10
 ErrMax= 2.92D-10  0.00D+00 EMaxC= 1.00D-01 BMatC= 3.76D-18 BMatP= 1.28D-15
 IDIUse=1 WtCom= 1.00D+00 WtEn= 0.00D+00
 Coeff-Com: -0.606D-05 0.178D-04 0.234D-03-0.211D-02 0.201D-01-0.164D+00
 Coeff-Com:  0.115D+01
 Coeff:     -0.606D-05 0.178D-04 0.234D-03-0.211D-02 0.201D-01-0.164D+00
 Coeff:      0.115D+01
 Gap=     0.575 Goal=   None    Shift=    0.000
 RMSDP=6.19D-11 MaxDP=2.60D-09 DE= 7.11D-14 OVMax= 1.15D-09

 Cycle   8  Pass 1  IDiag  1:
 E= -40.2135570048441     Delta-E=        0.000000000000 Rises=F Damp=F
 DIIS: error= 4.93D-11 at cycle   8 NSaved=   8.
 NSaved= 8 IEnMin= 6 EnMin= -40.2135570048445     IErMin= 8 ErrMin= 4.93D-11
 ErrMax= 4.93D-11  0.00D+00 EMaxC= 1.00D-01 BMatC= 5.91D-20 BMatP= 3.76D-18
 IDIUse=1 WtCom= 1.00D+00 WtEn= 0.00D+00
 Coeff-Com:  0.129D-05-0.354D-05-0.507D-04 0.460D-03-0.450D-02 0.385D-01
 Coeff-Com: -0.307D+00 0.127D+01
 Coeff:      0.129D-05-0.354D-05-0.507D-04 0.460D-03-0.450D-02 0.385D-01
 Coeff:     -0.307D+00 0.127D+01
 Gap=     0.575 Goal=   None    Shift=    0.000
 RMSDP=7.94D-12 MaxDP=1.12D-10 DE= 2.56D-13 OVMax= 1.77D-10

 Cycle   9  Pass 1  IDiag  1:
 E= -40.2135570048443     Delta-E=       -0.000000000000 Rises=F Damp=F
 DIIS: error= 7.70D-12 at cycle   9 NSaved=   9.
 NSaved= 9 IEnMin= 6 EnMin= -40.2135570048445     IErMin= 9 ErrMin= 7.70D-12
 ErrMax= 7.70D-12  0.00D+00 EMaxC= 1.00D-01 BMatC= 1.59D-21 BMatP= 5.91D-20
 IDIUse=1 WtCom= 1.00D+00 WtEn= 0.00D+00
 Coeff-Com: -0.303D-06 0.864D-06 0.119D-04-0.109D-03 0.105D-02-0.901D-02
 Coeff-Com:  0.758D-01-0.405D+00 0.134D+01
 Coeff:     -0.303D-06 0.864D-06 0.119D-04-0.109D-03 0.105D-02-0.901D-02
 Coeff:      0.758D-01-0.405D+00 0.134D+01
 Gap=     0.575 Goal=   None    Shift=    0.000
 RMSDP=6.82D-13 MaxDP=3.60D-11 DE=-1.28D-13 OVMax= 3.09D-11

 SCF Done:  E(RHF) =  -40.2135570048     A.U. after    9 cycles
[...]
 Alpha virt. eigenvalues --    0.83187   0.89216   0.89273   0.89330   0.96756
 Alpha virt. eigenvalues --    0.96815   0.96874   0.97047   0.97104   0.98016
 Alpha virt. eigenvalues --    1.06902   1.07007   1.07112   1.08535   1.08589
 Alpha virt. eigenvalues --    1.08646   1.11859   1.11863   1.21402   1.21468
 Alpha virt. eigenvalues --    1.21530   1.26388   1.26393   1.31555   1.58917
 Alpha virt. eigenvalues --    1.58966   1.59016   1.61745   1.61853   1.61953
 Alpha virt. eigenvalues --    1.62944   1.72943   1.72990   1.73033   1.86184
 Alpha virt. eigenvalues --    1.86375   1.86563   1.92586   1.92765   1.92938
 Alpha virt. eigenvalues --    2.11507   2.11605   2.11713   2.23964   2.23965
 Alpha virt. eigenvalues --    2.58429   2.90963   3.24857   3.24988   3.25091
 Alpha virt. eigenvalues --    3.48962   3.48962   3.57101   3.57283   3.57302
 Alpha virt. eigenvalues --    3.57435   3.57619   3.57770   3.90309   3.90739
 Alpha virt. eigenvalues --    3.91154   4.04837   4.05175   4.05478   4.06389
 Alpha virt. eigenvalues --    4.06721   4.07059   4.11676   4.11685   4.25441
 Alpha virt. eigenvalues --    4.56497   4.56960   4.57405   4.75688   4.75700
 Alpha virt. eigenvalues --    4.79595   4.79747   4.79917   4.85252   4.85531
 Alpha virt. eigenvalues --    4.85827   5.18268   5.18506   5.18779   5.29993
 Alpha virt. eigenvalues --    5.61980   5.63369   5.64756   5.80844   5.80892
 Alpha virt. eigenvalues --    5.81727   6.21318   6.21981   6.22620   6.60162
 Alpha virt. eigenvalues --    6.60515   6.60842  17.65762
          Condensed to atoms (all electrons):
               1          2          3          4          5
     1  C    5.628751   0.387913   0.388651   0.388132   0.388888
     2  H    0.387913   0.286841   0.009495   0.009324   0.009356
     3  H    0.388651   0.009495   0.284568   0.009375   0.009404
     4  H    0.388132   0.009324   0.009375   0.291345   0.009216
     5  H    0.388888   0.009356   0.009404   0.009216   0.288987
 Mulliken charges:
               1
     1  C   -1.182335
     2  H    0.297070
     3  H    0.298508
     4  H    0.292608
     5  H    0.294150
 Sum of Mulliken charges =   0.00000
 Mulliken charges with hydrogens summed into heavy atoms:
               1
     1  C    0.000000
 Electronic spatial extent (au):  <R**2>=             35.7544
 Charge=              0.0000 electrons
 Dipole moment (field-independent basis, Debye):
    X=              0.0001    Y=             -0.0074    Z=              0.0020  Tot=              0.0076
 Quadrupole moment (field-independent basis, Debye-Ang):
   XX=             -8.4210   YY=             -8.4210   ZZ=             -8.4210
   XY=              0.0141   XZ=              0.0086   YZ=              0.0002
 Traceless Quadrupole moment (field-independent basis, Debye-Ang):
   XX=             -0.0000   YY=             -0.0000   ZZ=              0.0000
   XY=              0.0141   XZ=              0.0086   YZ=              0.0002
 Octapole moment (field-independent basis, Debye-Ang**2):
  XXX=              0.0003  YYY=             -0.0328  ZZZ=              0.0589  XYY=              0.0002
  XXY=             -0.0084  XXZ=              0.0245  XZZ=              0.0001  YZZ=              0.0028
  YYZ=              0.0245  XYZ=              0.7046
 Hexadecapole moment (field-independent basis, Debye-Ang**3):
 XXXX=            -16.7230 YYYY=            -16.7231 ZZZZ=            -16.7243 XXXY=              0.0349
 XXXZ=             -0.0360 YYYX=              0.0349 YYYZ=              0.0006 ZZZX=             -0.0225
 ZZZY=              0.0003 XXYY=             -5.0065 XXZZ=             -5.0068 YYZZ=             -5.0068
 XXYZ=              0.0002 YYXZ=             -0.0076 ZZXY=             -0.0016
 N-N= 1.343538454671D+01 E-N=-1.198798727113D+02  KE= 4.014849306409D+01
 Leave Link  601 at Mon Jan  5 15:56:04 2026, MaxMem=  8589934592 cpu:               0.1 elap:               0.1
 (Enter /uufs/chpc.utah.edu/sys/installdir/gaussian16/C01/AVX2/g16/l110.exe)
 Numerical evaluation of force constants complete.
 Leave Link  110 at Mon Jan  5 15:56:04 2026, MaxMem=  8589934592 cpu:               0.1 elap:               0.1
 (Enter /uufs/chpc.utah.edu/sys/installdir/gaussian16/C01/AVX2/g16/l716.exe)
 Full mass-weighted force constant matrix:
 Low frequencies ---  -26.2515  -25.3033  -24.7857    3.0023    3.2046    3.5623
 Low frequencies --- 1350.4009 1350.4010 1350.4206
 Diagonal vibrational polarizability:
        0.0000000       0.0000000       0.0000000
 Harmonic frequencies (cm**-1), IR intensities (KM/Mole), Raman scattering
 activities (A**4/AMU), depolarization ratios for plane and unpolarized
 incident light, reduced masses (AMU), force constants (mDyne/A),
 and normal coordinates:
                      1                      2                      3
                     T2                     T2                     T2
 Frequencies --   1350.4008              1350.4009              1350.4205
 Red. masses --      1.1805                 1.1805                 1.1805
 Frc consts  --      1.2684                 1.2684                 1.2684
 IR Inten    --      0.0000                 0.0000                 0.0000
  Atom  AN      X      Y      Z        X      Y      Z        X      Y      Z
     1   6    -0.00   0.13   0.00     0.00  -0.00   0.13     0.13   0.00  -0.00
     2   1     0.23  -0.37   0.23     0.23   0.23  -0.37    -0.37   0.23   0.23
     3   1     0.23  -0.37  -0.23    -0.23  -0.23  -0.37    -0.37   0.23  -0.23
     4   1    -0.23  -0.37  -0.23     0.23  -0.23  -0.37    -0.37  -0.23   0.23
     5   1    -0.23  -0.37   0.23    -0.23   0.23  -0.37    -0.37  -0.23  -0.23
                      4                      5                      6
                      E                      E                     A1
 Frequencies --   1573.2788              1573.3016              3027.1046
 Red. masses --      1.0078                 1.0078                 1.0078
 Frc consts  --      1.4698                 1.4698                 5.4411
 IR Inten    --      0.0000                 0.0000                 0.0000
  Atom  AN      X      Y      Z        X      Y      Z        X      Y      Z
     1   6     0.00  -0.00   0.00    -0.00  -0.00   0.00    -0.00   0.00  -0.00
     2   1    -0.21  -0.19   0.41    -0.35   0.36  -0.01     0.29   0.29   0.29
     3   1     0.21   0.19   0.41     0.35  -0.36  -0.01    -0.29  -0.29   0.29
     4   1     0.21  -0.19  -0.41     0.35   0.36   0.01    -0.29   0.29  -0.29
     5   1    -0.21   0.19  -0.41    -0.35  -0.36   0.01     0.29  -0.29  -0.29
                      7                      8                      9
                     T2                     T2                     T2
 Frequencies --   3145.9197              3145.9292              3145.9317
 Red. masses --      1.1003                 1.1003                 1.1003
 Frc consts  --      6.4160                 6.4161                 6.4161
 IR Inten    --      0.0000                 0.0000                 0.0000
  Atom  AN      X      Y      Z        X      Y      Z        X      Y      Z
     1   6     0.00   0.09  -0.00     0.09  -0.00  -0.00     0.00   0.00   0.09
     2   1    -0.29  -0.27  -0.29    -0.27  -0.29  -0.29    -0.29  -0.29  -0.27
     3   1    -0.29  -0.27   0.29    -0.27  -0.29   0.29     0.29   0.29  -0.27
     4   1     0.29  -0.27   0.29    -0.27   0.29  -0.29    -0.29   0.29  -0.27
     5   1     0.29  -0.27  -0.29    -0.27   0.29   0.29     0.29  -0.29  -0.27

 -------------------
 - Thermochemistry -
 -------------------
 Temperature   298.150 Kelvin.  Pressure   1.00000 Atm.
 Atom     1 has atomic number  6 and mass  12.00000
 Atom     2 has atomic number  1 and mass   1.00783
 Atom     3 has atomic number  1 and mass   1.00783
 Atom     4 has atomic number  1 and mass   1.00783
 Atom     5 has atomic number  1 and mass   1.00783
 Molecular mass:    16.03130 amu.
 Principal axes and moments of inertia in atomic units:
                           1         2         3
     Eigenvalues --    11.40262  11.40262  11.40262
           X            0.69143   0.71910  -0.06944
           Y            0.35203  -0.25142   0.90159
           Z            0.63088  -0.64783  -0.42698
 This molecule is a spherical top.
 Rotational symmetry number 12.
 Rotational temperatures (Kelvin)      7.59597     7.59597     7.59597
 Rotational constants (GHZ):         158.27427   158.27427   158.27427
 Zero-point vibrational energy     117609.0 (Joules/Mol)
                                   28.10922 (Kcal/Mol)
 Vibrational temperatures:   1942.93  1942.93  1942.95  2263.60  2263.63
          (Kelvin)           4355.33  4526.28  4526.29  4526.29
 
 Zero-point correction=                           0.044795 (Hartree/Particle)
 Thermal correction to Energy=                    0.047662
 Thermal correction to Enthalpy=                  0.048606
 Thermal correction to Gibbs Free Energy=         0.027480
 Sum of electronic and zero-point Energies=            -40.396135
 Sum of electronic and thermal Energies=               -40.393268
 Sum of electronic and thermal Enthalpies=             -40.392324
 Sum of electronic and thermal Free Energies=          -40.413451
 
                     E (Thermal)             CV                S
                      KCal/Mol        Cal/Mol-Kelvin    Cal/Mol-Kelvin
 Total                   29.908              6.453             44.465
 Electronic               0.000              0.000              0.000
 Translational            0.889              2.981             34.261
 Rotational               0.889              2.981             10.120
 Vibrational             28.131              0.492              0.084
                       Q            Log10(Q)             Ln(Q)
 Total Bot       0.229213D-12        -12.639760        -29.104123
 Total V=0       0.921393D+08          7.964445         18.338812
 Vib (Bot)       0.250128D-20        -20.601838        -47.437486
 Vib (V=0)       0.100546D+01          0.002367          0.005449
 Electronic      0.100000D+01          0.000000          0.000000
 Translational   0.252294D+07          6.401907         14.740936
 Rotational      0.363221D+02          1.560171          3.592427
 ***** Axes restored to original set *****
 -------------------------------------------------------------------
 Center     Atomic                   Forces (Hartrees/Bohr)
 Number     Number              X              Y              Z
 -------------------------------------------------------------------
      1        6          -0.000000000   -0.000000000   -0.000000000
      2        1           0.000000002   -0.000000000   -0.000053720
      3        1          -0.000050647    0.000000000    0.000017908
      4        1           0.000025322    0.000043863    0.000017906
      5        1           0.000025323   -0.000043863    0.000017905
 -------------------------------------------------------------------
 Cartesian Forces:  Max     0.000053720 RMS     0.000027741
 -----------------------------------------------------------------------------------------------
                       Internal Coordinate Forces (Hartree/Bohr or radian)
  Cent   Atom   N1       Length/X         N2         Alpha/Y        N3         Beta/Z          J
 -----------------------------------------------------------------------------------------------
      1  C 
      2  H        1  -0.000054(     1)
      3  H        1  -0.000054(     2)      2  -0.000000(     5)
      4  H        1  -0.000054(     3)      2   0.000000(     6)      3   0.000000(     8)     0
      5  H        1  -0.000054(     4)      2   0.000000(     7)      4  -0.000000(     9)     0
 -----------------------------------------------------------------------------------------------
 Internal  Forces:  Max     0.000053720 RMS     0.000035813
 Force constants in Cartesian coordinates: 
                1             2             3             4             5 
      1  0.544719D+00
      2  0.000000D+00  0.544719D+00
      3  0.000000D+00  0.000000D+00  0.544719D+00
      4 -0.455375D-01  0.000000D+00  0.000000D+00  0.454220D-01
      5  0.000000D+00 -0.455376D-01  0.000000D+00  0.000000D+00  0.454224D-01
      6  0.000000D+00  0.000000D+00 -0.317463D+00  0.000000D+00  0.000000D+00
      7 -0.287249D+00  0.000000D+00  0.854578D-01  0.180637D-02  0.000000D+00
      8  0.000000D+00 -0.455376D-01  0.000000D+00  0.000000D+00 -0.176853D-02
      9  0.854582D-01  0.000000D+00 -0.757515D-01  0.321213D-01  0.000000D+00
     10 -0.105965D+00 -0.104664D+00 -0.427289D-01 -0.874748D-03  0.154652D-02
     11 -0.104664D+00 -0.226821D+00 -0.740089D-01  0.154897D-02  0.912310D-03
     12 -0.427290D-01 -0.740086D-01 -0.757515D-01 -0.160618D-01 -0.278182D-01
     13 -0.105965D+00  0.104664D+00 -0.427290D-01 -0.873579D-03 -0.154818D-02
     14  0.104664D+00 -0.226821D+00  0.740089D-01 -0.154578D-02  0.912521D-03
     15 -0.427289D-01  0.740087D-01 -0.757515D-01 -0.160609D-01  0.278202D-01
                6             7             8             9            10 
      6  0.344661D+00
      7 -0.148390D-02  0.311412D+00
      8  0.000000D+00  0.000000D+00  0.454224D-01
      9 -0.902557D-02 -0.940417D-01  0.000000D+00  0.786708D-01
     10  0.743620D-03 -0.129352D-01 -0.257131D-01 -0.117965D-01  0.111920D+00
     11  0.128611D-02  0.172783D-02  0.912521D-03  0.102867D-02  0.115177D+00
     12 -0.902573D-02  0.500612D-02  0.107330D-01  0.303487D-02  0.470207D-01
     13  0.741709D-03 -0.129341D-01  0.257118D-01 -0.117981D-01  0.783604D-02
     14 -0.128613D-02 -0.172888D-02  0.912310D-03 -0.103168D-02  0.137192D-01
     15 -0.902672D-02  0.500724D-02 -0.107308D-01  0.303362D-02  0.679155D-02
               11            12            13            14            15 
     11  0.244915D+00
     12  0.814424D-01  0.786711D-01
     13 -0.137193D-01  0.679136D-02  0.111920D+00
     14 -0.198575D-01  0.970100D-02 -0.115177D+00  0.244915D+00
     15 -0.970096D-02  0.303376D-02  0.470206D-01 -0.814425D-01  0.786709D-01
 Force constants in internal coordinates: 
                1             2             3             4             5 
      1  0.344661D+00
      2  0.160949D-02  0.344661D+00
      3  0.160793D-02  0.160914D-02  0.344661D+00
      4  0.160914D-02  0.160793D-02  0.160949D-02  0.344661D+00
      5  0.185465D-01  0.000000D+00 -0.927592D-02 -0.927231D-02  0.192605D+00
      6  0.185480D-01 -0.927334D-02  0.000000D+00 -0.927339D-02  0.271409D-01
      7  0.185493D-01 -0.927567D-02 -0.927312D-02  0.000000D+00  0.271347D-01
      8 -0.323174D-05  0.265952D-05  0.151431D-01 -0.151430D-01  0.106243D-04
      9 -0.140584D-05 -0.151435D-01  0.151432D-01  0.000000D+00  0.565674D-01
                6             7             8             9 
      6  0.192607D+00
      7  0.271334D-01  0.192606D+00
      8 -0.565619D-01  0.565628D-01  0.171019D+00
      9 -0.565615D-01  0.000000D+00  0.855099D-01  0.171205D+00
 Leave Link  716 at Mon Jan  5 15:56:05 2026, MaxMem=  8589934592 cpu:               0.1 elap:               0.1
 (Enter /uufs/chpc.utah.edu/sys/installdir/gaussian16/C01/AVX2/g16/l103.exe)

 GradGradGradGradGradGradGradGradGradGradGradGradGradGradGradGradGradGrad
 Berny optimization.
 Search for a local minimum.
 Step number   1 out of a maximum of    2
 All quantities printed in internal units (Hartrees-Bohrs-Radians)
 Second derivative matrix not updated -- analytic derivatives used.
 The second derivative matrix:
                         r_CH    theta_HC
   r_CH                 1.39795
   theta_HCH            0.00000   0.74064
 ITU=  0
     Eigenvalues ---    0.74064   1.39795
 Angle between quadratic step and forces=   0.00 degrees.
 Linear search not attempted -- first point.
 Variable       Old X    -DE/DX   Delta X   Delta X   Delta X     New X
                                 (Linear)    (Quad)   (Total)
   r_CH       2.05980  -0.00021   0.00000  -0.00015  -0.00015   2.05965
 theta_HC     1.91063  -0.00000   0.00000  -0.00000   0.00000   1.91063
         Item               Value     Threshold  Converged?
 Maximum Force            0.000215     0.000450     YES
 RMS     Force            0.000152     0.000300     YES
 Maximum Displacement     0.000154     0.001800     YES
 RMS     Displacement     0.000109     0.001200     YES
 Predicted change in Energy=-1.651447D-08
 Optimization completed.
    -- Stationary point found.
                       ----------------------------
                       !   Optimized Parameters   !
                       ! (Angstroms and Degrees)  !
 ----------------------                            ----------------------
 !      Name          Value   Derivative information (Atomic Units)     !
 ------------------------------------------------------------------------
 !      r_CH         1.09     -DE/DX =   -0.0002                        !
 !    theta_HCH    109.4712   -DE/DX =    0.0                           !
 ------------------------------------------------------------------------
 GradGradGradGradGradGradGradGradGradGradGradGradGradGradGradGradGradGrad

 Leave Link  103 at Mon Jan  5 15:56:05 2026, MaxMem=  8589934592 cpu:               0.1 elap:               0.1
 (Enter /uufs/chpc.utah.edu/sys/installdir/gaussian16/C01/AVX2/g16/l9999.exe)
 Unable to Open any file for archive entry.
 1\1\GINC-NOTCH097\Freq\RCCSD(T)-FC\Aug-CC-pVTZ\C1H4\U0253283\05-Jan-20
 26\1\\#p CCSD(T,FC,T1Diag,Conver=10, MaxCyc=200)/aug-cc-pVTZ Freq Geom
 =AllCheck Guess=Read SCF=(Conver=12,MaxCycle=100) Integral=(Acc2E=18,B
 asisTransform=18)\\Methane CCSD(T)/aug-cc-pVTZ opt. & freq. calc. usin
 g CCSD(T)\\0,1\C\H,1,r_CH\H,1,r_CH,2,theta_HCH\H,1,r_CH,2,theta_HCH,3,
 120.,0\H,1,r_CH,2,theta_HCH,4,120.,0\\r_CH=1.09\theta_HCH=109.47122063
 \\Version=ES64L-G16RevC.01\State=1-A1\HF=-40.2135359\MP2=-40.414422\MP
 3=-40.4325399\MP4D=-40.4374324\MP4DQ=-40.4333771\MP4SDQ=-40.4343573\CC
 SD=-40.4343686\CCSD(T)=-40.4409302\RMSD=1.032e-13\RMSF=2.774e-05\ZeroP
 oint=0.0447949\Thermal=0.047662\ETot=-40.3932681\HTot=-40.392324\GTot=
 -40.4134505\PG=TD [O(C1),4C3(H1)]\NImag=0\\0.54471883,0.,0.54471871,0.
 00000008,0.,0.54471877,-0.04553751,0.00000005,0.00000023,0.04542205,-0
 .00000001,-0.04553758,0.00000004,0.00000009,0.04542237,-0.00000015,0.0
 0000005,-0.31746314,-0.00000006,0.,0.34466077,-0.28724916,-0.00000007,
 0.08545782,0.00180637,-0.00000009,-0.00148390,0.31141199,-0.00000004,-
 0.04553758,0.00000003,0.00000006,-0.00176853,0.00000007,-0.00000002,0.
 04542237,0.08545820,-0.00000003,-0.07575149,0.03212128,-0.00000003,-0.
 00902557,-0.09404170,-0.00000009,0.07867083,-0.10596547,-0.10466408,-0
 .04272890,-0.00087475,0.00154652,0.00074362,-0.01293517,-0.02571308,-0
 .01179647,0.11191955,-0.10466438,-0.22682130,-0.07400887,0.00154897,0.
 00091231,0.00128611,0.00172783,0.00091252,0.00102867,0.11517706,0.2449
 1459,-0.04272895,-0.07400863,-0.07575146,-0.01606177,-0.02781822,-0.00
 902573,0.00500612,0.01073304,0.00303487,0.04702067,0.08144241,0.078671
 06,-0.10596539,0.10466403,-0.04272898,-0.00087358,-0.00154818,0.000741
 71,-0.01293409,0.02571177,-0.01179815,0.00783604,-0.01371927,0.0067913
 6,0.11191968,0.10466436,-0.22682130,0.07400890,-0.00154578,0.00091252,
 -0.00128613,-0.00172888,0.00091231,-0.00103168,0.01371924,-0.01985752,
 0.00970100,-0.11517699,0.24491459,-0.04272893,0.07400870,-0.07575154,-
 0.01606088,0.02782021,-0.00902672,0.00500724,-0.01073082,0.00303362,0.
 00679155,-0.00970096,0.00303376,0.04702063,-0.08144250,0.07867093\\0.,
 0.,0.,0.,0.,0.00005372,0.00005065,0.,-0.00001791,-0.00002532,-0.000043
 86,-0.00001791,-0.00002532,0.00004386,-0.00001791\\\@
 The archive entry for this job was punched.


 KNOWLEDGE IS EXPERIMENT'S DAUGHTER.
 -- LEONARDO DA VINCI, IN "PENSIERI" CA. 1492
 Job cpu time:       0 days  0 hours 54 minutes 15.7 seconds.
 Elapsed time:       0 days  0 hours 54 minutes 24.2 seconds.
 File lengths (MBytes):  RWF=    460 Int=      0 D2E=      0 Chk=     41 Scr=      1
 Normal termination of Gaussian 16 at Mon Jan  5 15:56:05 2026.
