
                                 *****************
                                 * O   R   C   A *
                                 *****************

                                            #,                                       
                                            ###                                      
                                            ####                                     
                                            #####                                    
                                            ######                                   
                                           ########,                                 
                                     ,,################,,,,,                         
                               ,,#################################,,                 
                          ,,##########################################,,             
                       ,#########################################, ''#####,          
                    ,#############################################,,   '####,        
                  ,##################################################,,,,####,       
                ,###########''''           ''''###############################       
              ,#####''   ,,,,##########,,,,          '''####'''          '####       
            ,##' ,,,,###########################,,,                        '##       
           ' ,,###''''                  '''############,,,                           
         ,,##''                                '''############,,,,        ,,,,,,###''
      ,#''                                            '''#######################'''  
     '                                                          ''''####''''         
             ,#######,   #######,   ,#######,      ##                                
            ,#'     '#,  ##    ##  ,#'     '#,    #''#        ,####,   ,####,        
            ##       ##  ##   ,#'  ##            #'  '#       #'       #'  '#        
            ##       ##  #######   ##           ,######,      #####,   #    #        
            '#,     ,#'  ##    ##  '#,     ,#' ,#      #,     #,   #   #,  ,#        
             '#######'   ##     ##  '#######'  #'      '#     '####' # '####'        



                #########################################################
                #                        -***-                          #
                #          Department of theory and spectroscopy        #
                #                                                       #
                #                      Frank Neese                      #
                #                                                       #
                #     Directorship, Architecture, Infrastructure        #
                #                    SHARK, DRIVERS                     #
                #        Core code/Algorithms in most modules           #
                #                                                       #
                #        Max Planck Institute fuer Kohlenforschung      #
                #                Kaiser Wilhelm Platz 1                 #
                #                 D-45470 Muelheim/Ruhr                 #
                #                      Germany                          #
                #                                                       #
                #                  All rights reserved                  #
                #                        -***-                          #
                #########################################################


                         Program Version 6.0.1  -  RELEASE   -


 With contributions from (in alphabetic order):
[Max-Planck-Institut fuer Kohlenforschung]                               
  Daniel Aravena         : Magnetic Suceptibility                        
  Michael Atanasov       : Ab Initio Ligand Field Theory (pilot matlab implementation)
  Alexander A. Auer      : GIAO ZORA, VPT2 properties, NMR spectrum      
  Ute Becker             : All parallelization in ORCA, NUMFREQ, NUMCALC 
  Giovanni Bistoni       : ED, misc. LED, open-shell LED, HFLD           
  Martin Brehm           : Molecular dynamics                            
  Dmytro Bykov           : pre 5.0 version of the SCF Hessian            
  Marcos Casanova-Páez   : Triplet and SCS-CIS(D). UHF-(DLPNO)-IP/EA/STEOM-CCSD. UHF-CVS-IP/STEOM-CCSD   
  Vijay G. Chilkuri      : MRCI spin determinant printing, contributions to CSF-ICE 
  Pauline Colinet        : FMM embedding                                 
  Dipayan Datta          : RHF DLPNO-CCSD density                        
  Achintya Kumar Dutta   : EOM-CC, STEOM-CC                              
  Nicolas Foglia         : Exact transition moments, OPA infrastructure, MCD improvements    
  Dmitry Ganyushin       : Spin-Orbit,Spin-Spin,Magnetic field MRCI      
  Miquel Garcia-Rates    : C-PCM and meta-GGA Hessian, CCSD/C-PCM, Gaussian charge scheme 
  Tiago L. C. Gouveia    : GS-ROHF, GS-ROCIS                             
  Yang Guo               : DLPNO-NEVPT2, F12-NEVPT2, CIM, IAO-localization        
  Andreas Hansen         : Spin unrestricted coupled pair/coupled cluster methods 
  Ingolf Harden          : AUTO-CI MPn and infrastructure                
  Benjamin Helmich-Paris : MC-RPA, TRAH-(SCF,CASSCF), AVAS, COSX integrals, SCF dyn. polar. 
  Lee Huntington         : MR-EOM, pCC                                   
  Robert Izsak           : Overlap fitted RIJCOSX, COSX-SCS-MP3, EOM     
  Riya Kayal             : Wick's Theorem for AUTO-CI, AUTO-CI UHF-CCSDT 
  Emily Kempfer          : AUTO-CI, RHF CISDT and CCSDT                  
  Christian Kollmar      : KDIIS, OOCD, Brueckner-CCSD(T), CCSD density, CASPT2, CASPT2-K, improved NEVPT2 
  Axel Koslowski         : Symmetry handling                             
  Simone Kossmann        : meta-GGA functionals, TD-DFT gradient, OOMP2, (MP2 Hessian; deprecated post 5.0) 
  Lucas Lang             : DCDCAS                                        
  Marvin Lechner         : AUTO-CI (C++ implementation), FIC-MRCC        
  Spencer Leger          : CASSCF response                               
  Dagmar Lenk            : GEPOL surface, SMD, ORCA-2-JSON               
  Dimitrios Liakos       : Extrapolation schemes; Compound Job, initial MDCI parallelization 
  Dimitrios Manganas     : Further ROCIS development; embedding schemes. LFT, Crystal Embedding 
  Dimitrios Pantazis     : SARC Basis sets                               
  Anastasios Papadopoulos: AUTO-CI, single reference methods and gradients 
  Taras Petrenko         : pre 6.0 DFT Hessian and TD-DFT gradient, (ASA, deprecated), ECA, 1-Electron XAS/XES, NRVS 
  Peter Pinski           : DLPNO-MP2, DLPNO-MP2 Gradient                 
  Christoph Reimann      : Effective Core Potentials                     
  Marius Retegan         : Local ZFS, SOC                                
  Christoph Riplinger    : Optimizer, TS searches, QM/MM, DLPNO-CCSD(T), (RO)-DLPNO pert. Triples 
  Michael Roemelt        : Original ROCIS implementation                 
  Masaaki Saitow         : Open-shell DLPNO-CCSD energy and density      
  Barbara Sandhoefer     : DKH picture change effects                    
  Kantharuban Sivalingam : CASSCF convergence/infrastructure, NEVPT2 and variants, FIC-MRCI 
  Bernardo de Souza      : ESD, SOC TD-DFT                               
  Georgi L. Stoychev     : AutoAux, RI-MP2 NMR, DLPNO-MP2 response, X2C  
  Van Anh Tran           : RI-MP2 g-tensors                              
  Willem Van den Heuvel  : Paramagnetic NMR                              
  Zikuan Wang            : NOTCH, Electric field optimization            
  Frank Wennmohs         : Technical directorship and infrastructure     
  Hang Xu                : AUTO-CI-Response properties                   
                                                                         
[FACCTs GmbH]                                                            
  Markus Bursch, Miquel Garcia-Rates, Christoph Riplinger, Bernardo de Souza, Georgi L. Stoychev 
                                                                 
  APM, Basis sets (HGBS, AHGBS, def-TZVP (Ac-Lr), def2-XVPD (La-Lu)), CI-OPT, improved COSX, DLPNO-Multilevel,           
  DOCKER, DRACO, updates on ESD, GOAT, IRC, LR-CPCM, MBIS, meta-GGA TD-DFT gradient, ML-optimized integration grids, 
  MM, NACMEs, nearIR, NEB, NEB-TS, NL-DFT gradient (VV10), 2- and 3-layer-ONIOM, interface openCOSMO-RS, QMMM,   
  Crystal-QMMM, SF, symmetry and pop. for TD-DFT, r2SCAN hybrids, SOLVATOR                                   
                                                                         
[Other institutions]                                                     
  V. Asgeirsson          : NEB                                           
  Christoph Bannwarth    : sTDA-DFT, sTD-DFT, PBEh-3c, B97-3c, D3        
  Sebastian Ehlert       : rSCAN, r2SCAN, r2SCAN-3c, D4, dhf basis sets  
  Marvin Friede          : D4 for Fr, Ra, Ac-Lr                          
  Lars Goerigk           : TD-DFT with DH, B97 family of functionals     
  Stefan Grimme          : VdW corrections, initial TS optimization, DFT functionals, gCP, sTDA/sTD-DF 
  Waldemar Hujo          : DFT-NL                                        
  H. Jonsson             : NEB                                           
  Holger Kruse           : gCP                                           
  Marcel Mueller         : wB97X-3c, vDZP basis set                      
  Hagen Neugebauer       : wr2SCAN                                       
  Tobias Risthaus        : range-separated hybrid DFT                    
  Lukas Wittmann         : regularized MP2, r2SCAN double-hybrids, wr2SCAN        
                                                                         
We gratefully acknowledge several colleagues who have allowed us to      
interface, adapt or use parts of their codes:                            
  Ed Valeev, F. Pavosevic, A. Kumar             : LibInt (2-el integral package), F12 methods 
  Garnet Chan, S. Sharma, J. Yang, R. Olivares  : DMRG                   
  Ulf Ekstrom                                   : XCFun DFT Library      
  Mihaly Kallay                                 : mrcc  (arbitrary order and MRCC methods)
  Frank Weinhold                                : gennbo (NPA and NBO analysis)           
  Simon Mueller                                 : openCOSMO-RS                            
  Christopher J. Cramer and Donald G. Truhlar   : smd solvation model                     
  S Lehtola, MJT Oliveira, MAL Marques          : LibXC Library                           
  Liviu Ungur et al                             : ANISO software                          


 Your calculation uses the libint2 library for the computation of 2-el integrals
 For citations please refer to: http://libint.valeyev.net

 Your ORCA version has been built with support for libXC version: 6.2.2
 For citations please refer to: https://libxc.gitlab.io

 This ORCA versions uses:
   CBLAS   interface :  Fast vector & matrix operations
   LAPACKE interface :  Fast linear algebra routines
   SCALAPACK package :  Parallel linear algebra routines
   Shared memory     :  Shared parallel matrices
   BLAS/LAPACK       :  OpenBLAS 0.3.27  USE64BITINT DYNAMIC_ARCH NO_AFFINITY Zen SINGLE_THREADED
        Core in use  :  Zen
   Copyright (c) 2011-2014, The OpenBLAS Project


SCAN-COORDS
================================================================================

----- Orbital basis set information -----
Your calculation utilizes the basis: aug-cc-pVTZ 
    H, B-Ne : Obtained from the ccRepo (grant-hill.group.shef.ac.uk/ccrepo) Feb. 2017
              R. A. Kendall, T. H. Dunning, Jr., R. J. Harrison, J. Chem. Phys. 96, 6796 (1992)
         He : Obtained from the ccRepo (grant-hill.group.shef.ac.uk/ccrepo) Feb. 2017
              D. E. Woon, T. H. Dunning, Jr., J. Chem. Phys. 100, 2975 (1994)
  Li-Be, Na : Obtained from the ccRepo (grant-hill.group.shef.ac.uk/ccrepo) Feb. 2017
              B. P. Prascher, D. E. Woon, K. A. Peterson, T. H. Dunning, Jr., A. K. Wilson, Theor. Chem. Acc. 128, 69 (2011)
         Mg : Obtained from the Peterson Research Group Website (tyr0.chem.wsu.edu/~kipeters) Feb. 2017
              B. P. Prascher, D. E. Woon, K. A. Peterson, T. H. Dunning, Jr., A. K. Wilson, Theor. Chem. Acc. 128, 69 (2011)
      Al-Ar : Obtained from the ccRepo (grant-hill.group.shef.ac.uk/ccrepo) Feb. 2017
              D. E. Woon, T. H. Dunning, Jr., J. Chem. Phys. 98, 1358 (1993)
      Sc-Zn : Obtained from the ccRepo (grant-hill.group.shef.ac.uk/ccrepo) Feb. 2017
              N. B. Balabanov, K. A. Peterson, J. Chem. Phys. 123, 064107 (2005)
              N. B. Balabanov, K. A. Peterson, J. Chem. Phys. 125, 074110 (2006)
      Ga-Kr : Obtained from the ccRepo (grant-hill.group.shef.ac.uk/ccrepo) Feb. 2017
              A. K. Wilson, D. E. Woon, K. A. Peterson, T. H. Dunning, Jr., J. Chem. Phys. 110, 7667 (1999)
     Ag, Au : Obtained from the Peterson Research Group Website (tyr0.chem.wsu.edu/~kipeters) Feb. 2017
              K. A. Peterson, C. Puzzarini, Theor. Chem. Acc. 114, 283 (2005)

================================================================================
                                        WARNINGS
                       Please study these warnings very carefully!
================================================================================


WARNING: The environment variable RSH_COMMAND is not set!
  ===> : All Displacements for the Numerical Hessian or Gradient calculation
         will be started on localhost

WARNING: Numerical Frequencies Analysis needs Gradient calculation
  ===> : Will do Numerical Gradient calculation !!!

WARNING: Geometry Optimization
  ===> : Switching off AutoStart
         For restart on a previous wavefunction, please use MOREAD

WARNING: Post HF methods need fully converged wavefunctions
  ===> : Setting SCFConvForced true
         You can overwrite this default with %scf ConvForced false 


WARNING: MDCI localization with Augmented Hessian Foster-Boys
  ===> : Switching off randomization!

================================================================================
                                       INPUT FILE
================================================================================
NAME = cadi.inp
|  1> # CO2: CCSD(T) geometry optimization + freq calc at CCSD(T) level
|  2> #      Basis: aug-cc-pVQZ
|  3> 
|  4> # Set the base name for the output file
|  5> %base "CO2-CC_"
|  6> 
|  7> %pal
|  8>     nprocs 16
|  9> end
| 10> 
| 11> # Keyword line
| 12> ! CCSD(T) Opt NumGrad NumFreq
| 13> 
| 14> # Output
| 15> %output
| 16>   PrintLevel  3
| 17> end
| 18> 
| 19> # Basis
| 20> %basis
| 21>   Basis  "aug-cc-pVTZ"
| 22> end
| 23> 
| 24> # SCF Block
| 25> %scf
| 26>   MaxIter 200
| 27>   TolE   1.0e-12      # SCF energy change threshold
| 28>   Thresh 1.0e-18      # integral prescreening threshold
| 29>   TCut   1.0e-20      # primitive integral prescreening cutoff
| 30>   ConvCheckMode 2     # default-style convergence check (energy-based)
| 31> end
| 32> 
| 33> # Canonical correlation Block
| 34> %mdci
| 35>   MaxIter 100         # Max. CC Iterations
| 36>   STol    1.0e-10     # tighten CC residual convergence (stricter than default)
| 37>   Triples 1           # Request the (T) correction
| 38> end
| 39> 
| 40> %coords
| 41>   CTyp internal
| 42>   Charge 0
| 43>   Mult 1
| 44>   # Define your variables here
| 45>   pardef 
| 46>     R1 = 1.16; 
| 47>   end
| 48>   # Z-matrix: AtomN NA NB NC  {Bond} {Angle} {Dihedral}
| 49>   coords
| 50>     O  0  0  0    0.0    0.0    0.0
| 51>     C  1  0  0    {R1}   0.0    0.0
| 52>     O  2  1  0    {R1}   180.0  0.0
| 53>   end
| 54> end
| 55> 
| 56> %geom
| 57>       MaxIter 100
| 58> 
| 59>       # Convergence 
| 60>       TolE 1.E-10
| 61>       TolRMSG  1.0E-6
| 62>       TolMAXG  3.0E-6
| 63>       TolRMSD  2.0E-5
| 64>       TolMaxD  4.0E-5
| 65> end
| 66> 
| 67> 
| 68> 
| 69> 
| 70>                          ****END OF INPUT****
================================================================================

                       *****************************
                       * Geometry Optimization Run *
                       *****************************

Geometry optimization settings:
Update method            Update   .... BFGS
Choice of coordinates    CoordSys .... (2022) Redundant Internals
Initial Hessian          InHess   .... Almloef's Model
Max. no of cycles        MaxIter  .... 100

Convergence Tolerances:
Energy Change            TolE     ....  1.0000e-10 Eh
Max. Gradient            TolMAXG  ....  3.0000e-06 Eh/bohr
RMS Gradient             TolRMSG  ....  1.0000e-06 Eh/bohr
Max. Displacement        TolMAXD  ....  4.0000e-05 bohr
RMS Displacement         TolRMSD  ....  2.0000e-05 bohr
Strict Convergence                .... False

------------------------------------------------------------------------------
                        ORCA OPTIMIZATION COORDINATE SETUP
------------------------------------------------------------------------------

The optimization will be done in redundant internal coordinates (2022)
Making redundant internal coordinates   ...  (2022 redundants) done
Evaluating the initial hessian          ...  (Almloef) done
Evaluating the coordinates              ...  done
Calculating the B-matrix                .... done
Calculating the G-matrix                .... done
Diagonalizing the G-matrix              .... done
The first mode is                       ....    0
The number of degrees of freedom        ....    4

    -----------------------------------------------------------------
                    Redundant Internal Coordinates


    -----------------------------------------------------------------
         Definition                    Initial Value    Approx d2E/dq
    -----------------------------------------------------------------
      1. B(C   1,O   0)                  1.1600         1.302644   
      2. B(O   2,C   1)                  1.1600         1.302644   
      3. L(O   0,C   1,O   2, 2)       180.0000         0.563989   
      4. L(O   0,C   1,O   2, 1)       180.0000         0.563989   
    -----------------------------------------------------------------

Number of atoms                         .... 3
Number of degrees of freedom            .... 4


         *************************************************************
         *                GEOMETRY OPTIMIZATION CYCLE   1            *
         *************************************************************
---------------------------------
CARTESIAN COORDINATES (ANGSTROEM)
---------------------------------
  O      0.000000    0.000000    0.000000
  C      1.160000    0.000000    0.000000
  O      2.320000    0.000000    0.000000

----------------------------
CARTESIAN COORDINATES (A.U.)
----------------------------
  NO LB      ZA    FRAG     MASS         X           Y           Z
   0 O     8.0000    0    15.999    0.000000    0.000000    0.000000
   1 C     6.0000    0    12.011    2.192082    0.000000    0.000000
   2 O     8.0000    0    15.999    4.384165    0.000000    0.000000

--------------------------------
INTERNAL COORDINATES (ANGSTROEM)
--------------------------------
 O      0   0   0     0.000000000000     0.00000000     0.00000000
 C      1   0   0     1.160000000000     0.00000000     0.00000000
 O      2   1   0     1.160000000000   180.00000000     0.00000000

---------------------------
INTERNAL COORDINATES (A.U.)
---------------------------
 O      0   0   0     0.000000000000     0.00000000     0.00000000
 C      1   0   0     2.192082315349     0.00000000     0.00000000
 O      2   1   0     2.192082315349   180.00000000     0.00000000

---------------------
BASIS SET INFORMATION
---------------------
There are 2 groups of distinct atoms

 Group   1 Type O   : 19s6p3d2f contracted to 5s4p3d2f pattern {88111/3111/111/11}
 Group   2 Type C   : 19s6p3d2f contracted to 5s4p3d2f pattern {88111/3111/111/11}

Atom   0O    basis set group =>   1
Atom   1C    basis set group =>   2
Atom   2O    basis set group =>   1


           ************************************************************
           *        Program running with 16 parallel MPI-processes    *
           *              working on a common directory               *
           ************************************************************
------------------------------------------------------------------------------
                             ORCA STARTUP CALCULATIONS
------------------------------------------------------------------------------
------------------------------------------------------------------------------
                   ___                                                        
                  /   \      - P O W E R E D   B Y -                         
                 /     \                                                     
                 |  |  |   _    _      __       _____    __    __             
                 |  |  |  | |  | |    /  \     |  _  \  |  |  /  |          
                  \  \/   | |  | |   /    \    | | | |  |  | /  /          
                 / \  \   | |__| |  /  /\  \   | |_| |  |  |/  /          
                |  |  |   |  __  | /  /__\  \  |    /   |      \           
                |  |  |   | |  | | |   __   |  |    \   |  |\   \          
                \     /   | |  | | |  |  |  |  | |\  \  |  | \   \       
                 \___/    |_|  |_| |__|  |__|  |_| \__\ |__|  \__/        
                                                                              
                      - O R C A' S   B I G   F R I E N D -                    
                                      &                                       
                       - I N T E G R A L  F E E D E R -                       
                                                                              
 v1 FN, 2020, v2 2021, v3 2022-2024                                           
------------------------------------------------------------------------------


----------------------
SHARK INTEGRAL PACKAGE
----------------------

Number of atoms                             ...      3
Number of basis functions                   ...    156
Number of shells                            ...     60
Maximum angular momentum                    ...      3
Integral batch strategy                     ... SHARK/LIBINT Hybrid
RI-J (if used) integral strategy            ... SPLIT-RIJ (Revised 2003 algorithm where possible)
Printlevel                                  ...      1
Contraction scheme used                     ... PARTIAL GENERAL contraction
Prescreening option                         ... SCHWARTZ
   Thresh                                   ... 1.000e-18
   Tcut                                     ... 1.000e-20
   Tpresel                                  ... 1.000e-20 
Coulomb Range Separation                    ... NOT USED
Exchange Range Separation                   ... NOT USED
Multipole approximations                    ... NOT USED
Finite Nucleus Model                        ... NOT USED
CABS basis                                  ... NOT available
Auxiliary Coulomb fitting basis             ... NOT available
Auxiliary J/K fitting basis                 ... NOT available
Auxiliary Correlation fitting basis         ... NOT available
Auxiliary 'external' fitting basis          ... NOT available

Checking pre-screening integrals            ... done (  0.0 sec) Dimension = 60
Save PGC pre-screening integrals            ... done (  0.0 sec) Dimension = 60
Calculate PGC overlap integrals             ... done (  0.0 sec) Dimension = 42
Calculating pre-screening integrals (ORCA)  ... done (  0.1 sec) Dimension = 42
Check shell pair data                       ... done (  0.0 sec)
Shell pair information
Shell pair cut-off parameter TPreSel        ...   1.0e-20
Total number of shell pairs                 ...      1830
Shell pairs after pre-screening             ...      1721
Total number of primitive shell pairs       ...      2220
Primitive shell pairs kept                  ...      2057
          la=0 lb=0:    452 shell pairs
          la=1 lb=0:    396 shell pairs
          la=1 lb=1:     78 shell pairs
          la=2 lb=0:    297 shell pairs
          la=2 lb=1:    108 shell pairs
          la=2 lb=2:     45 shell pairs
          la=3 lb=0:    198 shell pairs
          la=3 lb=1:     72 shell pairs
          la=3 lb=2:     54 shell pairs
          la=3 lb=3:     21 shell pairs

Calculating one electron integrals          ... done (  0.0 sec)
Calculating Nuclear repulsion               ... done (  0.0 sec) ENN=     58.391967812414 Eh

Diagonalization of the overlap matrix:
Smallest eigenvalue                        ... 3.501e-04
Time for diagonalization                   ...    0.019 sec
Threshold for overlap eigenvalues          ... 1.000e-07
Number of eigenvalues below threshold      ... 0
Time for construction of square roots      ...    0.017 sec
Total time needed                          ...    0.055 sec

-------------------
DFT GRID GENERATION
-------------------

General Integration Accuracy     IntAcc      ... 4.388
Radial Grid Type                 RadialGrid  ... OptM3 with GC (2021)
Angular Grid (max. ang.)         AngularGrid ... 4 (Lebedev-302)
Angular grid pruning method      GridPruning ... 4 (adaptive)
Weight generation scheme         WeightScheme... mBecke (2022)
Basis function cutoff            BFCut       ... 1.0000e-11
Integration weight cutoff        WCut        ... 1.0000e-14
Partially contracted basis set               ... off
Rotationally invariant grid construction     ... off
Angular grids for H and He will be reduced by one unit
Diffuse basis detected: some atoms will have their outermost
                        angular grid increased by 1.

Total number of grid points                  ...    19300
Total number of batches                      ...      302
Average number of points per batch           ...       63
Average number of grid points per atom       ...     6433

---------------------
SHARK GRID GENERATION
---------------------

General Integration Accuracy     IntAcc      ... 4.388
Radial Grid Type                 RadialGrid  ... OptM3 with GC (2021)
Angular Grid (max. ang.)         AngularGrid ... 4 (Lebedev-302)
Angular grid pruning method      GridPruning ... 4 (adaptive)
Weight generation scheme         WeightScheme... mBecke (2022)
Basis function cutoff            BFCut       ... 1.0000e-11
Integration weight cutoff        WCut        ... 1.0000e-14
Partially contracted basis set               ... off
Rotationally invariant grid construction     ... off
Angular grids for H and He will be reduced by one unit
Diffuse basis detected: some atoms will have their outermost
                        angular grid increased by 1.
Steep s-basis detected: some atoms will have their radial
                        grid points doubled.

Total number of grid points                  ...    38914
Total number of batches                      ...      610
Average number of points per batch           ...       63
Average number of grid points per atom       ...    12971
Initializing property integral containers    ... done (  0.0 sec)

SHARK setup successfully completed in   1.1 seconds

Maximum memory used throughout the entire STARTUP-calculation: 18.2 MB


           ************************************************************
           *        Program running with 16 parallel MPI-processes    *
           *              working on a common directory               *
           ************************************************************
-------------------------------------------------------------------------------
                                 ORCA GUESS
                   Start orbitals & Density for SCF / CASSCF
-------------------------------------------------------------------------------

------------
SCF SETTINGS
------------
Hamiltonian:
 Ab initio Hamiltonian  Method          .... Hartree-Fock(GTOs)


General Settings:
 Integral files         IntName         .... CO2-CC_
 Hartree-Fock type      HFTyp           .... RHF
 Total Charge           Charge          ....    0
 Multiplicity           Mult            ....    1
 Number of Electrons    NEL             ....   22
 Basis Dimension        Dim             ....  138
 Nuclear Repulsion      ENuc            ....     58.3919678124 Eh

Convergence Acceleration:
 AO-DIIS                CNVDIIS         .... on
   Start iteration      DIISMaxIt       ....    12
   Startup error        DIISStart       ....  0.200000
   # of expansion vecs  DIISMaxEq       ....     5
   Bias factor          DIISBfac        ....   1.050
   Max. coefficient     DIISMaxC        ....  10.000
 MO-DIIS                CNVKDIIS        .... off
 Trust-Rad. Augm. Hess. CNVTRAH         .... auto
   Auto Start mean grad. ratio tolernc. ....  1.125000
   Auto Start start iteration           ....    50
   Auto Start num. interpolation iter.  ....    10
   Max. Number of Micro iterations      ....    24
   Max. Number of Macro iterations      .... Maxiter - #DIIS iter
   Number of Davidson start vectors     ....     2
   Converg. threshold    (grad. norm)   ....   1.000e-05
   Grad. Scal. Fac. for Micro threshold ....   0.100
   Minimum threshold for Micro iter.    ....   1.000e-02
   NR start threshold (gradient norm)   ....   1.000e-04
   Initial trust radius                 ....   0.400
   Minimum AH scaling param. (alpha)    ....   1.000
   Maximum AH scaling param. (alpha)    .... 1000.000
   Quad. conv. algorithm                .... NR
   White noise on init. David. guess    .... on
   Maximum white noise                  ....   0.010
   Pseudo random numbers                .... off
   Inactive MOs                         .... canonical
   Orbital update algorithm             .... Taylor
   Preconditioner                       .... Diag
   Full preconditioner red. dimension   ....   250
 SOSCF                  CNVSOSCF        .... on
   Start iteration      SOSCFMaxIt      ....   150
   Startup grad/error   SOSCFStart      ....  0.003300
   Hessian update       SOSCFHessUp     .... L-BFGS
 Level Shifting         CNVShift        .... on
   Level shift para.    LevelShift      ....    0.2500
   Turn off err/grad.   ShiftErr        ....    0.0010
 Zerner damping         CNVZerner       .... off
 Static damping         CNVDamp         .... on
   Fraction old density DampFac         ....    0.7000
   Max. Damping (<1)    DampMax         ....    0.9800
   Min. Damping (>=0)   DampMin         ....    0.0000
   Turn off err/grad.   DampErr         ....    0.1000

SCF Procedure:
 Maximum # iterations   MaxIter         ....   200
 SCF integral mode      SCFMode         .... Direct
   Integral package                     .... SHARK and LIBINT hybrid scheme
 Reset frequency        DirectResetFreq ....    20
 Integral Threshold     Thresh          ....  1.000e-18 Eh
 Primitive CutOff       TCut            ....  1.000e-20 Eh

Convergence Tolerance:
 Convergence Check Mode ConvCheckMode   .... Total+1el-Energy
 Convergence forced     ConvForced      .... 1
 Energy Change          TolE            ....  1.000e-12 Eh
 1-El. energy change                    ....  1.000e-09 Eh
 Orbital Gradient       TolG            ....  1.000e-05
 Orbital Rotation angle TolX            ....  1.000e-05
 DIIS Error             TolErr          ....  5.000e-07

------------------------------
INITIAL GUESS: MODEL POTENTIAL
------------------------------
Loading Hartree-Fock densities                     ... done
Calculating cut-offs                               ... done
Initializing the effective Hamiltonian             ... done
Setting up the integral package (SHARK)            ... done
Starting the Coulomb interaction                   ... done (   0.1 sec)
Making the grid                                    ... done (   0.1 sec)
Mapping shells                                     ... done
Starting the XC term evaluation                    ... done (   0.0 sec)
Transforming the Hamiltonian                       ... done (   0.0 sec)
Diagonalizing the Hamiltonian                      ... done (   0.0 sec)
Back transforming the eigenvectors                 ... done (   0.0 sec)
Now organizing SCF variables                       ... done
                      ------------------
                      INITIAL GUESS DONE (   0.3 sec)
                      ------------------
             **** ENERGY FILE WAS UPDATED (CO2-CC_.en.tmp) ****
Finished Guess after   1.1 sec
Maximum memory used throughout the entire GUESS-calculation: 7.6 MB


           ************************************************************
           *        Program running with 16 parallel MPI-processes    *
           *              working on a common directory               *
           ************************************************************

-------------------------------------------------------------------------------------------
                                      ORCA LEAN-SCF
                              memory conserving SCF solver
-------------------------------------------------------------------------------------------

----------------------------------------D-I-I-S--------------------------------------------
Iteration    Energy (Eh)           Delta-E    RMSDP     MaxDP     DIISErr   Damp  Time(sec)
-------------------------------------------------------------------------------------------
               ***  Starting incremental Fock matrix formation  ***
    1    -187.5924875063719242     0.00e+00  1.09e-03  2.85e-02  2.60e-01  0.700   0.4
    2    -187.6358359767960167    -4.33e-02  7.37e-04  1.86e-02  1.56e-01  0.700   0.3
                               ***Turning on AO-DIIS***
    3    -187.6596828582648300    -2.38e-02  4.24e-04  1.26e-02  1.09e-01  0.700   0.3
    4    -187.6748194097059752    -1.51e-02  3.04e-04  8.97e-03  7.80e-02  0.700   0.3
    5    -187.6851748485615303    -1.04e-02  7.41e-04  2.12e-02  5.49e-02  0.000   0.3
    6    -187.7094511036834206    -2.43e-02  6.61e-05  3.11e-03  4.77e-03  0.000   0.3
                              *** Initializing SOSCF ***
---------------------------------------S-O-S-C-F--------------------------------------
Iteration    Energy (Eh)           Delta-E    RMSDP     MaxDP     MaxGrad    Time(sec)
--------------------------------------------------------------------------------------
    7    -187.7095000637529267    -4.90e-05  2.21e-05  6.06e-04  9.50e-04     0.5
               *** Restarting incremental Fock matrix formation ***
    8    -187.7095056215224531    -5.56e-06  1.22e-05  4.88e-04  4.12e-04     0.2
    9    -187.7095067629311984    -1.14e-06  8.02e-06  2.36e-04  1.25e-04     0.2
   10    -187.7095070068916129    -2.44e-07  1.68e-06  3.83e-05  4.58e-05     0.2
   11    -187.7095070317436409    -2.49e-08  2.58e-07  4.61e-06  4.05e-06     0.2
   12    -187.7095070321423123    -3.99e-10  1.02e-07  1.81e-06  1.45e-06     0.2
                  *** Gradient check signals convergence ***

               *****************************************************
               *                     SUCCESS                       *
               *           SCF CONVERGED AFTER  12 CYCLES          *
               *****************************************************

             **** ENERGY FILE WAS UPDATED (CO2-CC_.en.tmp) ****

----------------
TOTAL SCF ENERGY
----------------

Total Energy       :       -187.70950703214231 Eh           -5107.83536 eV

Components:
Nuclear Repulsion  :         58.39196781241380 Eh            1588.92622 eV
Electronic Energy  :       -246.10147484455612 Eh           -6696.76159 eV
One Electron Energy:       -372.51149336340609 Eh          -10136.55307 eV
Two Electron Energy:        126.41001851884997 Eh            3439.79148 eV

Virial components:
Potential Energy   :       -375.06743942915455 Eh          -10206.10390 eV
Kinetic Energy     :        187.35793239701226 Eh            5098.26853 eV
Virial Ratio       :          2.00187648652305

---------------
SCF CONVERGENCE
---------------

  Last Energy change         ...    3.9867e-10  Tolerance :   1.0000e-12
  Last MAX-Density change    ...    1.8105e-06  Tolerance :   1.0000e-07
  Last RMS-Density change    ...    1.0164e-07  Tolerance :   5.0000e-09
  Last DIIS Error            ...    9.4966e-04  Tolerance :   5.0000e-07
  Last Orbital Gradient      ...    1.4497e-06  Tolerance :   1.0000e-05
  Last Orbital Rotation      ...    2.1414e-06  Tolerance :   1.0000e-05


----------------
ORBITAL ENERGIES
----------------

  NO   OCC          E(Eh)            E(eV) 
   0   2.0000     -20.652937      -561.9950 
   1   2.0000     -20.652891      -561.9937 
   2   2.0000     -11.461005      -311.8698 
   3   2.0000      -1.532324       -41.6967 
   4   2.0000      -1.479278       -40.2532 
   5   2.0000      -0.801094       -21.7989 
   6   2.0000      -0.744002       -20.2453 
   7   2.0000      -0.716137       -19.4871 
   8   2.0000      -0.716137       -19.4871 
   9   2.0000      -0.544962       -14.8292 
  10   2.0000      -0.544962       -14.8292 
  11   0.0000       0.047383         1.2894 
  12   0.0000       0.072819         1.9815 
  13   0.0000       0.072819         1.9815 
  14   0.0000       0.078831         2.1451 
  15   0.0000       0.161001         4.3811 
  16   0.0000       0.163697         4.4544 
  17   0.0000       0.163697         4.4544 
  18   0.0000       0.201179         5.4744 
  19   0.0000       0.201179         5.4744 
  20   0.0000       0.207336         5.6419 
  21   0.0000       0.224393         6.1060 
*Only the first 10 virtual orbitals were printed.

                    ********************************
                    * MULLIKEN POPULATION ANALYSIS *
                    ********************************

-----------------------
MULLIKEN ATOMIC CHARGES
-----------------------
   0 O :   -0.240755
   1 C :    0.481511
   2 O :   -0.240755
Sum of atomic charges:   -0.0000000

--------------------------------
MULLIKEN REDUCED ORBITAL CHARGES
--------------------------------
  0 O s       :     3.844558  s :     3.844558
      pz      :     1.572254  p :     4.367967
      px      :     1.223459
      py      :     1.572254
      dz2     :     0.001487  d :     0.027575
      dxz     :     0.010813
      dyz     :     0.000000
      dx2y2   :     0.004461
      dxy     :     0.010813
      f0      :     0.000176  f :     0.000655
      f+1     :    -0.000106
      f-1     :     0.000029
      f+2     :     0.000293
      f-2     :     0.000000
      f+3     :    -0.000176
      f-3     :     0.000439

  1 C s       :     3.137431  s :     3.137431
      pz      :     0.688073  p :     2.049250
      px      :     0.673103
      py      :     0.688073
      dz2     :     0.006272  d :     0.259607
      dxz     :     0.117259
      dyz     :     0.000000
      dx2y2   :     0.018817
      dxy     :     0.117259
      f0      :     0.010349  f :     0.072201
      f+1     :     0.006378
      f-1     :     0.001725
      f+2     :     0.017248
      f-2     :     0.000000
      f+3     :     0.010630
      f-3     :     0.025872

  2 O s       :     3.844558  s :     3.844558
      pz      :     1.572254  p :     4.367967
      px      :     1.223459
      py      :     1.572254
      dz2     :     0.001487  d :     0.027575
      dxz     :     0.010813
      dyz     :     0.000000
      dx2y2   :     0.004461
      dxy     :     0.010813
      f0      :     0.000176  f :     0.000655
      f+1     :    -0.000106
      f-1     :     0.000029
      f+2     :     0.000293
      f-2     :    -0.000000
      f+3     :    -0.000176
      f-3     :     0.000439



                     *******************************
                     * LOEWDIN POPULATION ANALYSIS *
                     *******************************

----------------------
LOEWDIN ATOMIC CHARGES
----------------------
   0 O :    0.359934
   1 C :   -0.719869
   2 O :    0.359934

-------------------------------
LOEWDIN REDUCED ORBITAL CHARGES
-------------------------------
  0 O s       :     3.263015  s :     3.263015
      pz      :     1.343516  p :     4.116531
      px      :     1.429500
      py      :     1.343516
      dz2     :     0.022801  d :     0.190071
      dxz     :     0.049434
      dyz     :     0.000000
      dx2y2   :     0.068403
      dxy     :     0.049434
      f0      :     0.007603  f :     0.070448
      f+1     :     0.011213
      f-1     :     0.001267
      f+2     :     0.012671
      f-2     :     0.000000
      f+3     :     0.018688
      f-3     :     0.019007

  1 C s       :     2.610680  s :     2.610680
      pz      :     0.585245  p :     2.314047
      px      :     1.143557
      py      :     0.585245
      dz2     :     0.103462  d :     1.301773
      dxz     :     0.443962
      dyz     :     0.000000
      dx2y2   :     0.310386
      dxy     :     0.443962
      f0      :     0.054130  f :     0.493369
      f+1     :     0.076754
      f-1     :     0.009022
      f+2     :     0.090216
      f-2     :     0.000000
      f+3     :     0.127924
      f-3     :     0.135324

  2 O s       :     3.263015  s :     3.263015
      pz      :     1.343516  p :     4.116531
      px      :     1.429500
      py      :     1.343516
      dz2     :     0.022801  d :     0.190071
      dxz     :     0.049434
      dyz     :     0.000000
      dx2y2   :     0.068403
      dxy     :     0.049434
      f0      :     0.007603  f :     0.070448
      f+1     :     0.011213
      f-1     :     0.001267
      f+2     :     0.012671
      f-2     :     0.000000
      f+3     :     0.018688
      f-3     :     0.019007



                      *****************************
                      * MAYER POPULATION ANALYSIS *
                      *****************************

  NA   - Mulliken gross atomic population
  ZA   - Total nuclear charge
  QA   - Mulliken gross atomic charge
  VA   - Mayer's total valence
  BVA  - Mayer's bonded valence
  FA   - Mayer's free valence

  ATOM       NA         ZA         QA         VA         BVA        FA
  0 O      8.2408     8.0000    -0.2408     2.0083     2.0083    -0.0000
  1 C      5.5185     6.0000     0.4815     4.0263     4.0263    -0.0000
  2 O      8.2408     8.0000    -0.2408     2.0083     2.0083    -0.0000

  Mayer bond orders larger than 0.100000
B(  0-O ,  1-C ) :   2.0132 B(  1-C ,  2-O ) :   2.0132 

-------
TIMINGS
-------

Total SCF time: 0 days 0 hours 0 min 4 sec 

Total time                  ....       4.452 sec
Sum of individual times     ....       4.104 sec  ( 92.2%)

SCF preparation             ....       0.853 sec  ( 19.2%)
Fock matrix formation       ....       2.106 sec  ( 47.3%)
  Startup                   ....       0.086 sec  (  4.1% of F)
  Coulomb+Exchange Fock     ....       1.777 sec  ( 84.4% of F)
Diagonalization             ....       0.000 sec  (  0.0%)
Density matrix formation    ....       0.283 sec  (  6.4%)
Total Energy calculation    ....       0.071 sec  (  1.6%)
Population analysis         ....       0.042 sec  (  0.9%)
Orbital Transformation      ....       0.051 sec  (  1.2%)
Orbital Orthonormalization  ....       0.000 sec  (  0.0%)
DIIS solution               ....       0.487 sec  ( 10.9%)
SOSCF solution              ....       0.207 sec  (  4.7%)
Finished LeanSCF after   4.5 sec

Maximum memory used throughout the entire LEANSCF-calculation: 12.0 MB


           ************************************************************
           *        Program running with 16 parallel MPI-processes    *
           *              working on a common directory               *
           ************************************************************

------------------------------------------------------------------------------
                         ORCA PROPERTY INTEGRAL CALCULATIONS
------------------------------------------------------------------------------

GBWName                                   ... CO2-CC_.gbw
Number of atoms                           ...      3
Number of basis functions                 ...    156
Max core memory                           ...   1024 MB

Dipole integrals                          ... YES
Quadrupole integrals                      ...  NO
Linear momentum integrals                 ...  NO
Angular momentum integrals                ...  NO
Higher moments length integrals           ...  NO
Higher moments velocity integrals         ...  NO
Kinetic energy integrals                  ...  NO
GIAO right hand sides                     ...  NO
GIAO dipole derivative integrals          ...  NO
SOC integrals                             ...  NO
EPR diamagnetic integrals (GIAO)          ...  NO
EPR gauge integrals                       ...  NO
Field gradient integrals                  ...  NO (   0 nuclei)
Spin-dipole/Fermi contact integrals       ...  NO (   0 nuclei)
Contact density integrals                 ...  NO (   0 nuclei)
Nucleus-orbit integrals                   ...  NO (   0 nuclei)
Geometric perturbations                   ...  NO (   3 nuclei)

Choice of electric origin   ... Center of mass
Position of electric origin ... (  2.1921,  0.0000,  0.0000) 
Choice of magnetic origin   ... GIAO
Position of magnetic origin ... (  0.0000,  0.0000,  0.0000) 

Calculating integrals                     ... Electric Dipole (Length)     done (  0.0 sec)

Property integrals calculated in   0.0 sec

Maximum memory used throughout the entire PROPINT-calculation: 7.9 MB


           ************************************************************
           *        Program running with 16 parallel MPI-processes    *
           *              working on a common directory               *
           ************************************************************


--------------------------------------------------------------------------------
                             ORCA-MATRIX DRIVEN CI
--------------------------------------------------------------------------------

--------------------------------
AUTOMATIC CHOICE OF INCORE LEVEL
--------------------------------

Memory available                           ...    256.00 MB
Memory needed for S+T                      ...     13.29 MB
Memory needed for J+K                      ...     26.65 MB
Memory needed for DIIS                     ...    186.06 MB
Memory needed for 3-ext                    ...    125.02 MB
Memory needed for 4-ext                    ...   1000.19 MB
Memory needed for triples                  ...     78.14 MB
 -> Final InCoreLevel    ... 3
 -> check shows that triples correction can be computed


Wavefunction type
-----------------
Correlation treatment                      ...      CCSD     
Single excitations                         ... ON
Orbital optimization                       ... OFF
Calculation of Z vector                    ... OFF
Calculation of Brueckner orbitals          ... OFF
Perturbative triple excitations            ... ON
Calculation of F12 correction              ... OFF
Frozen core treatment                      ... chemical core (6 el)
Reference Wavefunction                     ... RHF
  Internal Orbitals:     3 ...   10 (  8 MO's/ 16 electrons)
  Virtual  Orbitals:    11 ...  137 (127 MO's              )
Number of AO's                             ...    138
Number of electrons                        ...     22
Number of correlated electrons             ...     16

Algorithmic settings
--------------------
Integral transformation                    ... AO direct full transformation
K(C) Formation                             ... FULL-MO TRAFO
Maximum number of iterations               ...       100
Convergence tolerance (max. residuum)      ... 1.000e-10
Level shift for amplitude update           ... 2.000e-01
Maximum number of DIIS vectors             ...         7
DIIS turned on at iteration                ...         0
Damping before turning on DIIS             ...     0.500
Damping after turning on DIIS              ...     0.000
Pair specific amplitude update             ... OFF
Natural orbital iterations                 ... OFF
Perturbative natural orbital generation    ... OFF
Printlevel                                 ... 2

Memory handling:
----------------
Maximum memory for working arrays          ...    256 MB
Data storage in matrix containers          ... UNCOMPRESSED
Data type for integral storage             ... DOUBLE
In-Core Storage of quantities:
   Amplitudes+Sigma Vector      ... YES
   J+K operators                ... YES
   DIIS vectors                 ... YES
   3-external integrals         ... NO
   4-external integrals         ... NO


Initializing the integral package          ... done
Warning: reference  - re-canonicalizations have been set to INT 1 VIRT 1
Fock densities were made 
Making Fock matrix and reference energy:

--------------------------
CLOSED-SHELL FOCK OPERATOR
--------------------------

Recanonicalizing the internal orbitals
Recanonicalizing the virtual orbitals
Storing new orbitals
Time needed for Fock operator              ...            0.239 sec
Reference energy                           ...   -187.709507032

------------------------------
PARTIAL COULOMB TRANSFORMATION
------------------------------

Transformation type                        ... one-operator
Dimension of the basis                     ...  138
Number of internal MOs                     ...  135 (3-137)
Pair cutoff                                ... 0.000e+00 Eh
Number of AO pairs included in the trafo   ... 9591
Total Number of distinct AO pairs          ... 9591
Memory devoted for trafo                   ... 1024.0 MB 
Max. Number of MO pairs treated together   ... 13994      
Max. Number of MOs treated per batch       ...  101      
Number Format for Storage                  ... Double (8 Byte)
AO-integral source                         ... DIRECT
Integral package used                      ... LIBINT

Starting integral evaluation:
<ss|**>:       108360 b        0 skpd     0.083 s (  0.001 ms/b)
<sp|**>:       162540 b        0 skpd     0.149 s (  0.001 ms/b)
<sd|**>:       121905 b        0 skpd     0.183 s (  0.002 ms/b)
<sf|**>:        81270 b        0 skpd     0.209 s (  0.003 ms/b)
<pp|**>:        70434 b        0 skpd     0.164 s (  0.002 ms/b)
<pd|**>:        97524 b        0 skpd     0.406 s (  0.004 ms/b)
<pf|**>:        65016 b        0 skpd     0.410 s (  0.006 ms/b)
<dd|**>:        40635 b        0 skpd     0.301 s (  0.007 ms/b)
<df|**>:        48762 b        0 skpd     0.501 s (  0.010 ms/b)
<ff|**>:        18963 b        0 skpd     0.285 s (  0.015 ms/b)
Closing buffer AOJ ( 0.66 GB; CompressionRatio= 1.00)
Collecting buffer AOJ 
    ... done with AO integral generation
Number of MO pairs included in the trafo   ... 9180
    ... Now sorting integrals
IBATCH = 1 of  1
Closing buffer JAO ( 0.66 GB; CompressionRatio= 1.00)
Collecting buffer JAO 
TOTAL TIME for half transformation         ...     5.103 sec
AO-integral generation                     ...     0.651 sec
Half transformation                        ...     2.042 sec
J-integral sorting                         ...     2.251 sec

------------------
CLOSED SHELL GUESS
------------------

Initial guess performed in     0.051 sec
E(0)                                       ...   -187.709507032
E(MP2)                                     ...     -0.611726940
Initial E(tot)                             ...   -188.321233972
<T|T>                                      ...      0.161498124
Number of pairs included                   ... 36
Total number of pairs                      ... 36

------------------------------------------------
                  RHF COUPLED CLUSTER ITERATIONS
------------------------------------------------

Number of amplitudes to be optimized       ... 581660

Iter       E(tot)           E(Corr)          Delta-E          Residual     Time
  0   -188.321233972     -0.611726940      0.000000000      0.025913549    1.33
                           *** Turning on DIIS ***
  1   -188.291396691     -0.581889659      0.029837281      0.005807481    0.70
  2   -188.307208660     -0.597701627     -0.015811968      0.004429546    0.70
  3   -188.309463675     -0.599956643     -0.002255015      0.001246721    0.74
  4   -188.310470435     -0.600963403     -0.001006760      0.000520505    0.71
  5   -188.310670553     -0.601163521     -0.000200118      0.000127248    0.67
  6   -188.310696022     -0.601188990     -0.000025469      0.000050395    0.67
  7   -188.310699531     -0.601192499     -0.000003509      0.000018421    0.62
  8   -188.310698754     -0.601191722      0.000000777      0.000004203    0.64
  9   -188.310698846     -0.601191814     -0.000000092      0.000001607    0.69
 10   -188.310698772     -0.601191740      0.000000075      0.000000579    0.70
 11   -188.310698753     -0.601191721      0.000000019      0.000000184    0.67
 12   -188.310698759     -0.601191727     -0.000000006      0.000000060    0.69
 13   -188.310698754     -0.601191722      0.000000005      0.000000016    0.62
 14   -188.310698756     -0.601191724     -0.000000002      0.000000004    0.64
 15   -188.310698756     -0.601191724      0.000000000      0.000000001    0.65
 16   -188.310698756     -0.601191724     -0.000000000      0.000000000    0.64
 17   -188.310698756     -0.601191724      0.000000000      0.000000000    0.62
               --- The Coupled-Cluster iterations have converged ---

----------------------
COUPLED CLUSTER ENERGY
----------------------

E(0)                                       ...   -187.709507032
E(CORR)                                    ...     -0.601191724
E(TOT)                                     ...   -188.310698756
Singles Norm <S|S>**1/2                    ...      0.071250825  
T1 diagnostic                              ...      0.017812706  

------------------
LARGEST AMPLITUDES
------------------
   7-> 18  -1-> -1       0.031501
   8-> 19  -1-> -1       0.031501
  10-> 19  10-> 19       0.026317
   9-> 18   9-> 18       0.026317
   8-> 19   8-> 19       0.025699
   7-> 18   7-> 18       0.025699
   7-> 19  -1-> -1       0.025248
   8-> 18  -1-> -1       0.025248
   9-> 19   9-> 19       0.022969
  10-> 18  10-> 18       0.022969
   9-> 18   9-> 19       0.020374
   9-> 19   9-> 18       0.020374
  10-> 18  10-> 19       0.020374
  10-> 19  10-> 18       0.020374
  10-> 19   9-> 19       0.020374
  10-> 18   9-> 18       0.020374


        !!!!!!!!!!!!!!!!!!!!!!!!!!!!!!!!!!!!!!!!!!!!!!!!!!!!!!!!!!!!!!!!!!!!!!!!!! 
        !  Warning: Densities are linearized densities !                         !
        !!!!!!!!!!!!!!!!!!!!!!!!!!!!!!!!!!!!!!!!!!!!!!!!!!!!!!!!!!!!!!!!!!!!!!!!!! 

Trace of internal density part =     -0.320006672
Trace of external density part =      0.320006672
----------------------
RHF TRIPLES CORRECTION (Algorithm 1)
----------------------

Multiplier for the singles contribution    ...      1.000000000
Fock matrix occ-virt block is zero --> Setting DT_in_Triples to false.

10% done
20% done
30% done
40% done
50% done
60% done
70% done
80% done

Triples Correction (T)                     ...     -0.029705155
Scaling of triples based on CCSD energies (Peterson et al. Molecular Physics 113, 1551 (2015))
E(T*) = f*E(T) where f = E(F12-CCSD)/E(CCSD) 
f = CCSD (with F12)/ CCSD (without F12)    ...      1.000000000
Scaled triples correction (T)              ...     -0.029705155

Final correlation energy                   ...     -0.630896879
E(CCSD)                                    ...   -188.310698756
E(CCSD(T))                                 ...   -188.340403911

NORM  =      1.165080016 sqrt=     1.079388723
W(HF) =      0.858310147
------------------------------------------------------------------------------
                           ORCA POPULATION ANALYSIS
------------------------------------------------------------------------------
Input electron density              ... CO2-CC_.mdcip
BaseName (.gbw .S,...)              ... CO2-CC_

                    ********************************
                    * MULLIKEN POPULATION ANALYSIS *
                    ********************************

-----------------------
MULLIKEN ATOMIC CHARGES
-----------------------
   0 O :   -0.158421
   1 C :    0.316842
   2 O :   -0.158421
Sum of atomic charges:   -0.0000000

--------------------------------
MULLIKEN REDUCED ORBITAL CHARGES
--------------------------------
  0 O s       :     3.856805  s :     3.856805
      pz      :     1.509306  p :     4.241803
      px      :     1.223191
      py      :     1.509306
      dz2     :     0.007015  d :     0.055062
      dxz     :     0.016594
      dyz     :     0.006187
      dx2y2   :     0.008672
      dxy     :     0.016594
      f0      :     0.000724  f :     0.004751
      f+1     :     0.000516
      f-1     :     0.000567
      f+2     :     0.000850
      f-2     :     0.000680
      f+3     :     0.000407
      f-3     :     0.001007
  1 C s       :     3.139216  s :     3.139216
      pz      :     0.798530  p :     2.216763
      px      :     0.619702
      py      :     0.798530
      dz2     :     0.008894  d :     0.273883
      dxz     :     0.120575
      dyz     :     0.002840
      dx2y2   :     0.021000
      dxy     :     0.120575
      f0      :     0.007590  f :     0.053297
      f+1     :     0.004829
      f-1     :     0.001459
      f+2     :     0.012495
      f-2     :     0.000745
      f+3     :     0.007551
      f-3     :     0.018627
  2 O s       :     3.856805  s :     3.856805
      pz      :     1.509306  p :     4.241803
      px      :     1.223191
      py      :     1.509306
      dz2     :     0.007015  d :     0.055062
      dxz     :     0.016594
      dyz     :     0.006187
      dx2y2   :     0.008672
      dxy     :     0.016594
      f0      :     0.000724  f :     0.004751
      f+1     :     0.000516
      f-1     :     0.000567
      f+2     :     0.000850
      f-2     :     0.000680
      f+3     :     0.000407
      f-3     :     0.001007


                     *******************************
                     * LOEWDIN POPULATION ANALYSIS *
                     *******************************

----------------------
LOEWDIN ATOMIC CHARGES
----------------------
   0 O :    0.376696
   1 C :   -0.753391
   2 O :    0.376696

-------------------------------
LOEWDIN REDUCED ORBITAL CHARGES
-------------------------------
  0 O s       :     3.261715  s :     3.261715
      pz      :     1.309406  p :     4.039554
      px      :     1.420741
      py      :     1.309406
      dz2     :     0.028520  d :     0.238029
      dxz     :     0.064875
      dyz     :     0.005798
      dx2y2   :     0.073962
      dxy     :     0.064875
      f0      :     0.009816  f :     0.084007
      f+1     :     0.012043
      f-1     :     0.002080
      f+2     :     0.016006
      f-2     :     0.000748
      f+3     :     0.019572
      f-3     :     0.023742
  1 C s       :     2.609891  s :     2.609891
      pz      :     0.641718  p :     2.407046
      px      :     1.123609
      py      :     0.641718
      dz2     :     0.107147  d :     1.276625
      dxz     :     0.425395
      dyz     :     0.002754
      dx2y2   :     0.315933
      dxy     :     0.425395
      f0      :     0.047617  f :     0.459829
      f+1     :     0.077138
      f-1     :     0.008136
      f+2     :     0.079201
      f-2     :     0.001472
      f+3     :     0.127583
      f-3     :     0.118682
  2 O s       :     3.261715  s :     3.261715
      pz      :     1.309406  p :     4.039554
      px      :     1.420741
      py      :     1.309406
      dz2     :     0.028520  d :     0.238029
      dxz     :     0.064875
      dyz     :     0.005798
      dx2y2   :     0.073962
      dxy     :     0.064875
      f0      :     0.009816  f :     0.084007
      f+1     :     0.012043
      f-1     :     0.002080
      f+2     :     0.016006
      f-2     :     0.000748
      f+3     :     0.019572
      f-3     :     0.023742


                      *****************************
                      * MAYER POPULATION ANALYSIS *
                      *****************************

  NA   - Mulliken gross atomic population
  ZA   - Total nuclear charge
  QA   - Mulliken gross atomic charge
  VA   - Mayer's total valence
  BVA  - Mayer's bonded valence
  FA   - Mayer's free valence

  ATOM       NA         ZA         QA         VA         BVA        FA
  0 O      8.1584     8.0000    -0.1584     2.3548     1.9151     0.4396
  1 C      5.6832     6.0000     0.3168     4.0966     3.7554     0.3413
  2 O      8.1584     8.0000    -0.1584     2.3548     1.9151     0.4396

  Mayer bond orders larger than 0.100000
B(  0-O ,  1-C ) :   1.8777 B(  1-C ,  2-O ) :   1.8777 



--------------------------------------------------------------------------------
                                    TIMINGS
--------------------------------------------------------------------------------


Total execution time                   ...       61.814 sec

Fock Matrix Formation                  ...        0.239 sec (  0.4%)
Initial Guess                          ...        0.051 sec (  0.1%)
DIIS Solver                            ...        0.492 sec (  0.8%)
State Vector Update                    ...        0.020 sec (  0.0%)
Sigma-vector construction              ...       12.199 sec ( 19.7%)
  <0|H|D>                              ...        0.030 sec (  0.2% of sigma)
  <D|H|D>(0-ext)                       ...        0.049 sec (  0.4% of sigma)
  <D|H|D>(2-ext Fock)                  ...        0.017 sec (  0.1% of sigma)
  <D|H|D>(2-ext)                       ...        0.417 sec (  3.4% of sigma)
  <D|H|D>(4-ext)                       ...        1.687 sec ( 13.8% of sigma)
  <D|H|D>(4-ext-corr)                  ...        0.714 sec (  5.9% of sigma)
  <S|H|0>                              ...        0.004 sec (  0.0% of sigma)
  <S|H|S>                              ...        0.142 sec (  1.2% of sigma)
  <S|H|D>(1-ext)                       ...        0.096 sec (  0.8% of sigma)
  <D|H|S>(1-ext)                       ...        0.543 sec (  4.5% of sigma)
  <S|H|D>(3-ext)                       ...        1.405 sec ( 11.5% of sigma)
  Fock-dressing                        ...        3.194 sec ( 26.2% of sigma)
  (ik|jl)-dressing                     ...        0.338 sec (  2.8% of sigma)
  (ij|ab),(ia|jb)-dressing             ...        3.138 sec ( 25.7% of sigma)
  Pair energies                        ...        0.036 sec (  0.3% of sigma)
Total Time for computing (T)           ...        1.501 sec (  2.4% of ALL)
  I/O of integral and amplitudes       ...        0.296 sec ( 19.7% of (T))
  N**6 sorting step                    ...        0.284 sec ( 18.9% of (T))
  External N**7 contributions          ...        0.734 sec ( 48.9% of (T))
  Internal N**7 contributions          ...        0.101 sec (  6.8% of (T))
  N**6 triples energy contributions    ...        0.086 sec (  5.7% of (T))
One-particle density matrix            ...        0.003 sec (  0.0%)


Maximum memory used throughout the entire MDCI-calculation: 1045.6 MB

-------------------------   --------------------
FINAL SINGLE POINT ENERGY      -188.340403911390
-------------------------   --------------------


----------------------------------------------------------------------------
                           ORCA NUMERICAL GRADIENT
                              (16-process run)
----------------------------------------------------------------------------

I state                        ... 1
Number of atoms                ... 3
Derivative's order of accuracy ... 2
Central differences            ... used
Number of displacements        ... 18
Numerical increment            ... 5.000e-03 bohr
Translation invariance         ... used

The output will be reduced. Please look at the following files:
SCF program output             ... >CO2-CC_.lastscf
Integral program output        ... >CO2-CC_.lastint
Gradient program output        ... >CO2-CC_.lastgrad

List of participating nodes    ...  CO2-CC_.hostnames

	<< Calculating energy on displaced geometry  11 (of  12) >>
	<< Calculating energy on displaced geometry  10 (of  12) >>
	<< Calculating energy on displaced geometry   4 (of  12) >>
	<< Calculating energy on displaced geometry   1 (of  12) >>
	<< Calculating energy on displaced geometry   6 (of  12) >>
	<< Calculating energy on displaced geometry   5 (of  12) >>
	<< Calculating energy on displaced geometry   2 (of  12) >>
	<< Calculating energy on displaced geometry  12 (of  12) >>
	<< Calculating energy on displaced geometry   3 (of  12) >>
	<< Calculating energy on displaced geometry   9 (of  12) >>
	<< Calculating energy on displaced geometry   7 (of  12) >>
	<< Calculating energy on displaced geometry   8 (of  12) >>

------------------------------
CARTESIAN GRADIENT (NUMERICAL)
-------------------------------
   1   O   :    0.014691746   -0.000000000   -0.000000000
   2   C   :    0.000000000    0.000000000   -0.000000000
   3   O   :   -0.014691747    0.000000000    0.000000000

Norm of the Cartesian gradient     ...    0.020777267
RMS gradient                       ...    0.006925756
MAX gradient                       ...    0.014691747

-------
TIMINGS
-------

Total numerical gradient time      ...      316.855 sec

------------------------------------------------------------------------------
                         ORCA GEOMETRY RELAXATION STEP
------------------------------------------------------------------------------

Reading the OPT-File                    .... done
Getting information on internals        .... done
Copying old internal coords+grads       .... done
Making the new internal coordinates     .... (2022 redundants) done
Validating the new internal coordinates .... (2022 redundants) done
Calculating the B-matrix                .... done
Calculating the G,G- and P matrices     .... done
Transforming gradient to internals      .... done
Projecting the internal gradient        .... done
Number of atoms                         ....   3
Number of internal coordinates          ....   4
Current Energy                          ....  -188.340403911 Eh
Current gradient norm                   ....     0.020777267 Eh/bohr
Maximum allowed component of the step   ....  0.300
Current trust radius                    ....  0.300
Evaluating the initial hessian          ....  (Almloef) done
Projecting the Hessian                  .... done
Forming the augmented Hessian           .... done
Diagonalizing the augmented Hessian     .... done
Last element of RFO vector              ....  0.999872887
Lowest eigenvalues of augmented Hessian:
 -0.000331315  0.563988660  0.563988660  1.302644141
Length of the computed step             ....  0.015946016
The final length of the internal step   ....  0.015946016
Converting the step to Cartesian space:
 Initial RMS(Int)=    0.0079730079
Transforming coordinates:
 Iter   0:  RMS(Cart)=    0.0053153386 RMS(Int)=    0.0079730079
done
Storing new coordinates                 .... done

                                .--------------------.
          ----------------------|Geometry convergence|-------------------------
          Item                value                   Tolerance       Converged
          ---------------------------------------------------------------------
          RMS gradient        0.0103886336            0.0000010000      NO
          MAX gradient        0.0146917465            0.0000030000      NO
          RMS step            0.0079730079            0.0000200000      NO
          MAX step            0.0112755359            0.0000400000      NO
          ........................................................
          Max(Bonds)      0.0060      Max(Angles)    0.00
          Max(Dihed)        0.00      Max(Improp)    0.00
          ---------------------------------------------------------------------

The optimization has not yet converged - more geometry cycles are needed


    ---------------------------------------------------------------------------
                         Redundant Internal Coordinates
                            (Angstroem and degrees)

        Definition                    Value    dE/dq     Step     New-Value
    ----------------------------------------------------------------------------
     1. B(C   1,O   0)                1.1600 -0.014692  0.0060    1.1660   
     2. B(O   2,C   1)                1.1600 -0.014692  0.0060    1.1660   
     3. L(O   0,C   1,O   2, 2)       180.00  0.000000   -0.00    180.00   
     4. L(O   0,C   1,O   2, 1)       180.00  0.000000   -0.00    180.00   
    ----------------------------------------------------------------------------

Geometry step timings:
Preparation and reading OPT file:      0.000 s ( 1.108 %)
Internal coordinates            :      0.000 s ( 0.091 %)
B/P matrices and projection     :      0.000 s ( 0.308 %)
Hessian update/contruction      :      0.017 s (58.724 %)
Making the step                 :      0.000 s ( 0.193 %)
Converting the step to Cartesian:      0.000 s ( 0.112 %)
Storing new data                :      0.008 s (27.683 %)
Checking convergence            :      0.000 s ( 0.000 %)
Final printing                  :      0.003 s (11.746 %)
Total time                      :      0.030 s

Time for energy+gradient        :    390.853 s
Time for complete geometry iter :    392.669 s

         *************************************************************
         *                GEOMETRY OPTIMIZATION CYCLE   2            *
         *************************************************************
---------------------------------
CARTESIAN COORDINATES (ANGSTROEM)
---------------------------------
  O     -0.005967    0.000000   -0.000000
  C      1.160000   -0.000000    0.000000
  O      2.325967    0.000000   -0.000000

----------------------------
CARTESIAN COORDINATES (A.U.)
----------------------------
  NO LB      ZA    FRAG     MASS         X           Y           Z
   0 O     8.0000    0    15.999   -0.011276    0.000000   -0.000000
   1 C     6.0000    0    12.011    2.192082   -0.000000    0.000000
   2 O     8.0000    0    15.999    4.395440    0.000000   -0.000000

--------------------------------
INTERNAL COORDINATES (ANGSTROEM)
--------------------------------
 O      0   0   0     0.000000000000     0.00000000     0.00000000
 C      1   0   0     1.165966756579     0.00000000     0.00000000
 O      2   1   0     1.165966756612   180.00000000     0.00000000

---------------------------
INTERNAL COORDINATES (A.U.)
---------------------------
 O      0   0   0     0.000000000000     0.00000000     0.00000000
 C      1   0   0     2.203357851191     0.00000000     0.00000000
 O      2   1   0     2.203357851252   180.00000000     0.00000000



           ************************************************************
           *        Program running with 16 parallel MPI-processes    *
           *              working on a common directory               *
           ************************************************************
------------------------------------------------------------------------------
                   ___                                                        
                  /   \      - P O W E R E D   B Y -                         
                 /     \                                                     
                 |  |  |   _    _      __       _____    __    __             
                 |  |  |  | |  | |    /  \     |  _  \  |  |  /  |          
                  \  \/   | |  | |   /    \    | | | |  |  | /  /          
                 / \  \   | |__| |  /  /\  \   | |_| |  |  |/  /          
                |  |  |   |  __  | /  /__\  \  |    /   |      \           
                |  |  |   | |  | | |   __   |  |    \   |  |\   \          
                \     /   | |  | | |  |  |  |  | |\  \  |  | \   \       
                 \___/    |_|  |_| |__|  |__|  |_| \__\ |__|  \__/        
                                                                              
                      - O R C A' S   B I G   F R I E N D -                    
                                      &                                       
                       - I N T E G R A L  F E E D E R -                       
                                                                              
 v1 FN, 2020, v2 2021, v3 2022-2024                                           
------------------------------------------------------------------------------


----------------------
SHARK INTEGRAL PACKAGE
----------------------

Number of atoms                             ...      3
Number of basis functions                   ...    156
Number of shells                            ...     60
Maximum angular momentum                    ...      3
Integral batch strategy                     ... SHARK/LIBINT Hybrid
RI-J (if used) integral strategy            ... SPLIT-RIJ (Revised 2003 algorithm where possible)
Printlevel                                  ...      1
Contraction scheme used                     ... PARTIAL GENERAL contraction
Prescreening option                         ... SCHWARTZ
   Thresh                                   ... 1.000e-18
   Tcut                                     ... 1.000e-20
   Tpresel                                  ... 1.000e-20 
Coulomb Range Separation                    ... NOT USED
Exchange Range Separation                   ... NOT USED
Multipole approximations                    ... NOT USED
Finite Nucleus Model                        ... NOT USED
CABS basis                                  ... NOT available
Auxiliary Coulomb fitting basis             ... NOT available
Auxiliary J/K fitting basis                 ... NOT available
Auxiliary Correlation fitting basis         ... NOT available
Auxiliary 'external' fitting basis          ... NOT available

Checking pre-screening integrals            ... done (  0.0 sec) Dimension = 60
Save PGC pre-screening integrals            ... done (  0.0 sec) Dimension = 60
Calculate PGC overlap integrals             ... done (  0.0 sec) Dimension = 42
Calculating pre-screening integrals (ORCA)  ... done (  0.1 sec) Dimension = 42
Check shell pair data                       ... done (  0.0 sec)
Shell pair information
Shell pair cut-off parameter TPreSel        ...   1.0e-20
Total number of shell pairs                 ...      1830
Shell pairs after pre-screening             ...      1721
Total number of primitive shell pairs       ...      2220
Primitive shell pairs kept                  ...      2057
          la=0 lb=0:    452 shell pairs
          la=1 lb=0:    396 shell pairs
          la=1 lb=1:     78 shell pairs
          la=2 lb=0:    297 shell pairs
          la=2 lb=1:    108 shell pairs
          la=2 lb=2:     45 shell pairs
          la=3 lb=0:    198 shell pairs
          la=3 lb=1:     72 shell pairs
          la=3 lb=2:     54 shell pairs
          la=3 lb=3:     21 shell pairs

Calculating one electron integrals          ... done (  0.0 sec)
Calculating Nuclear repulsion               ... done (  0.0 sec) ENN=     58.093150837489 Eh

Diagonalization of the overlap matrix:
Smallest eigenvalue                        ... 3.557e-04
Time for diagonalization                   ...    0.002 sec
Threshold for overlap eigenvalues          ... 1.000e-07
Number of eigenvalues below threshold      ... 0
Time for construction of square roots      ...    0.012 sec
Total time needed                          ...    0.025 sec

-------------------
DFT GRID GENERATION
-------------------

General Integration Accuracy     IntAcc      ... 4.388
Radial Grid Type                 RadialGrid  ... OptM3 with GC (2021)
Angular Grid (max. ang.)         AngularGrid ... 4 (Lebedev-302)
Angular grid pruning method      GridPruning ... 4 (adaptive)
Weight generation scheme         WeightScheme... mBecke (2022)
Basis function cutoff            BFCut       ... 1.0000e-11
Integration weight cutoff        WCut        ... 1.0000e-14
Partially contracted basis set               ... off
Rotationally invariant grid construction     ... off
Angular grids for H and He will be reduced by one unit
Diffuse basis detected: some atoms will have their outermost
                        angular grid increased by 1.

Total number of grid points                  ...    19308
Total number of batches                      ...      303
Average number of points per batch           ...       63
Average number of grid points per atom       ...     6436

---------------------
SHARK GRID GENERATION
---------------------

General Integration Accuracy     IntAcc      ... 4.388
Radial Grid Type                 RadialGrid  ... OptM3 with GC (2021)
Angular Grid (max. ang.)         AngularGrid ... 4 (Lebedev-302)
Angular grid pruning method      GridPruning ... 4 (adaptive)
Weight generation scheme         WeightScheme... mBecke (2022)
Basis function cutoff            BFCut       ... 1.0000e-11
Integration weight cutoff        WCut        ... 1.0000e-14
Partially contracted basis set               ... off
Rotationally invariant grid construction     ... off
Angular grids for H and He will be reduced by one unit
Diffuse basis detected: some atoms will have their outermost
                        angular grid increased by 1.
Steep s-basis detected: some atoms will have their radial
                        grid points doubled.

Total number of grid points                  ...    38914
Total number of batches                      ...      610
Average number of points per batch           ...       63
Average number of grid points per atom       ...    12971
Initializing property integral containers    ... done (  0.0 sec)

SHARK setup successfully completed in   1.0 seconds

Maximum memory used throughout the entire STARTUP-calculation: 18.3 MB


           ************************************************************
           *        Program running with 16 parallel MPI-processes    *
           *              working on a common directory               *
           ************************************************************
Occupation numbers will be reassigned to an Aufbau configuration
             **** ENERGY FILE WAS UPDATED (CO2-CC_.en.tmp) ****
Finished Guess after   0.9 sec
Maximum memory used throughout the entire GUESS-calculation: 7.8 MB


           ************************************************************
           *        Program running with 16 parallel MPI-processes    *
           *              working on a common directory               *
           ************************************************************
----------------------------------------D-I-I-S--------------------------------------------
Iteration    Energy (Eh)           Delta-E    RMSDP     MaxDP     DIISErr   Damp  Time(sec)
-------------------------------------------------------------------------------------------
               ***  Starting incremental Fock matrix formation  ***
    1    -187.7080164880368898     0.00e+00  3.45e-05  1.18e-03  4.26e-03  0.700   0.3
                              *** Initializing SOSCF ***
---------------------------------------S-O-S-C-F--------------------------------------
Iteration    Energy (Eh)           Delta-E    RMSDP     MaxDP     MaxGrad    Time(sec)
--------------------------------------------------------------------------------------
    2    -187.7080318581636504    -1.54e-05  8.73e-05  2.56e-03  3.10e-03     0.3
               *** Restarting incremental Fock matrix formation ***
[...]
  (ik|jl)-dressing                     ...        0.372 sec (  3.0% of sigma)
  (ij|ab),(ia|jb)-dressing             ...        3.071 sec ( 24.7% of sigma)
  Pair energies                        ...        0.039 sec (  0.3% of sigma)
Total Time for computing (T)           ...        1.500 sec (  2.5% of ALL)
  I/O of integral and amplitudes       ...        0.306 sec ( 20.4% of (T))
  N**6 sorting step                    ...        0.276 sec ( 18.4% of (T))
  External N**7 contributions          ...        0.732 sec ( 48.8% of (T))
  Internal N**7 contributions          ...        0.101 sec (  6.7% of (T))
  N**6 triples energy contributions    ...        0.085 sec (  5.7% of (T))
One-particle density matrix            ...        0.003 sec (  0.0%)


Maximum memory used throughout the entire MDCI-calculation: 1046.1 MB

-------------------------   --------------------
FINAL SINGLE POINT ENERGY      -188.340595370949
-------------------------   --------------------

                                *** OPTIMIZATION RUN DONE ***



           ************************************************************
           *        Program running with 16 parallel MPI-processes    *
           *              working on a common directory               *
           ************************************************************

------------------------------------------------------------------------------
                              ORCA PROPERTY CALCULATIONS
------------------------------------------------------------------------------

GBWName                                 ... CO2-CC_.gbw
Number of atoms                         ...      3
Number of basis functions               ...    156
Max core memory                         ...   1024 MB

Electric properties:
Dipole moment                           ... YES
Quadrupole moment                       ...  NO
Static polarizability (Dipole/Dipole)   ...  NO
Static polarizability (Dipole/Quad.)    ...  NO
Static polarizability (Quad./Quad.)     ...  NO
Static polarizability (Velocity)        ...  NO

Atomic electric properties:
Dipole moment                           ...  NO
Quadrupole moment                       ...  NO
Static polarizability                   ...  NO

Choice of electric origin               ... Center of mass
Position of electric origin             ...     2.192082     0.000000    -0.000000

General magnetic properties:
Magnetizability                         ...  NO

EPR properties:
g-Tensor (aka g-matrix)                 ...  NO
Zero-Field splitting spin-orbit         ...  NO
Zero-field splitting spin-spin          ...  NO
Hyperfine couplings                     ...  NO (   0 nuclei)
Quadrupole couplings                    ...  NO (   0 nuclei)
Contact density                         ...  NO (   0 nuclei)

NMR properties:
Chemical shifts                         ...  NO (   0 nuclei)
Spin-rotation constants                 ...  NO (   0 nuclei)
Spin-spin couplings                     ...  NO (   0 nuclei,    0 pairs)

Choice of magnetic origin               ... GIAO
Position of magnetic origin             ...     0.000000     0.000000     0.000000

Properties with geometric perturbations:
SCF Hessian                             ...  NO
IR spectrum                             ...  NO
VCD spectrum                            ...  NO
X-ray spectroscopy properties:
SCF XES/XAS/RIXS spectra                ...  NO


-------------
DIPOLE MOMENT
-------------

Method             : SCF
Type of density    : Electron Density
Multiplicity       :   1
Irrep              :   0
Energy             :  -187.7078037225785465 Eh
Relativity type    : 
Basis              : AO
                                X                 Y                 Z
Electronic contribution:      0.000000000      -0.000000000       0.000000000
Nuclear contribution   :     -0.000000000       0.000000000      -0.000000000
                        -----------------------------------------
Total Dipole Moment    :      0.000000000      -0.000000000       0.000000000
                        -----------------------------------------
Magnitude (a.u.)       :      0.000000000
Magnitude (Debye)      :      0.000000000



--------------------
Rotational spectrum 
--------------------
 
Rotational constants in cm-1:             0.000000             0.386861             0.386861 
Rotational constants in MHz :             0.000000         11597.791011         11597.791011 

Dipole components along the rotational axes: 
x,y,z [a.u.] :    -0.000000     0.000000     0.000000 
x,y,z [Debye]:    -0.000000     0.000000     0.000000 

 

-------------
DIPOLE MOMENT
-------------

Method             : MDCI(SD)
Type of density    : Electron Density
Multiplicity       :   1
Level              : Linearized density
Irrep              :   0
Energy             :     0.0000000000000000 Eh
Relativity type    : 
Basis              : AO
                                X                 Y                 Z
Electronic contribution:      0.000000000      -0.000000000       0.000000000
Nuclear contribution   :     -0.000000000       0.000000000      -0.000000000
                        -----------------------------------------
Total Dipole Moment    :      0.000000000      -0.000000000       0.000000000
                        -----------------------------------------
Magnitude (a.u.)       :      0.000000000
Magnitude (Debye)      :      0.000000000



--------------------
Rotational spectrum 
--------------------
 
Rotational constants in cm-1:             0.000000             0.386861             0.386861 
Rotational constants in MHz :             0.000000         11597.791011         11597.791011 

Dipole components along the rotational axes: 
x,y,z [a.u.] :    -0.000000     0.000000     0.000000 
x,y,z [Debye]:    -0.000000     0.000000     0.000000 

 

Dipole moment calculation done in   0.0 sec 

Maximum memory used throughout the entire PROP-calculation: 11.1 MB

----------------------------------------------------------------------------
                           ORCA NUMERICAL FREQUENCIES
                              (16-process run)
----------------------------------------------------------------------------

Number of atoms                ... 3
Central differences            ... used
Number of displacements        ... 18
Numerical increment            ... 5.000e-03 bohr
IR-spectrum generation         ... on
Raman-spectrum generation      ... off
Surface Crossing Hessian       ... off

The output will be reduced. Please look at the following files:
SCF program output             ... >CO2-CC_.lastscf
Integral program output        ... >CO2-CC_.lastint
Gradient program output        ... >CO2-CC_.lastgrad
Dipole moment program output   ... >CO2-CC_.lastmom

List of participating nodes    ...  CO2-CC_.hostnames

	<< Calculating energy on displaced geometry   5 (of  12) >>
	<< Calculating energy on displaced geometry   2 (of  12) >>
	<< Calculating energy on displaced geometry   4 (of  12) >>
	<< Calculating energy on displaced geometry   1 (of  12) >>
	<< Calculating energy on displaced geometry   3 (of  12) >>
	<< Calculating energy on displaced geometry   7 (of  12) >>
	<< Calculating energy on displaced geometry   6 (of  12) >>
	<< Calculating energy on displaced geometry   9 (of  12) >>
	<< Calculating energy on displaced geometry  10 (of  12) >>
	<< Calculating energy on displaced geometry   8 (of  12) >>
	<< Calculating energy on displaced geometry  11 (of  12) >>
	<< Calculating energy on displaced geometry  12 (of  12) >>
List of participating nodes    ...  CO2-CC_.hostnames

	<< Calculating gradient on displaced geometry   4 (of  18) >>
	<< Calculating gradient on displaced geometry   3 (of  18) >>
	<< Calculating gradient on displaced geometry   2 (of  18) >>
	<< Calculating gradient on displaced geometry   5 (of  18) >>
	<< Calculating gradient on displaced geometry   8 (of  18) >>
	<< Calculating gradient on displaced geometry   9 (of  18) >>
	<< Calculating gradient on displaced geometry   7 (of  18) >>
	<< Calculating gradient on displaced geometry   1 (of  18) >>
	<< Calculating gradient on displaced geometry  10 (of  18) >>
	<< Calculating gradient on displaced geometry   6 (of  18) >>
	<< Calculating gradient on displaced geometry  11 (of  18) >>
	<< Calculating gradient on displaced geometry  13 (of  18) >>
	<< Calculating gradient on displaced geometry  12 (of  18) >>
	<< Calculating gradient on displaced geometry  15 (of  18) >>
	<< Calculating gradient on displaced geometry  16 (of  18) >>
	<< Calculating gradient on displaced geometry  14 (of  18) >>
	<< Calculating gradient on displaced geometry  17 (of  18) >>
	<< Calculating gradient on displaced geometry  18 (of  18) >>

-----------------------
VIBRATIONAL FREQUENCIES
-----------------------

Scaling factor for frequencies =  1.000000000  (already applied!)

     0:       0.00 cm**-1
     1:       0.00 cm**-1
     2:       0.00 cm**-1
     3:       0.00 cm**-1
     4:       0.00 cm**-1
     5:     663.70 cm**-1
     6:     663.70 cm**-1
     7:    1340.68 cm**-1
     8:    2371.99 cm**-1


------------
NORMAL MODES
------------

These modes are the Cartesian displacements weighted by the diagonal matrix
M(i,i)=1/sqrt(m[i]) where m[i] is the mass of the displaced atom
Thus, these vectors are normalized but *not* orthogonal

                  0          1          2          3          4          5    
      0       0.000000   0.000000   0.000000   0.000000   0.000000   0.000000
      1       0.000000   0.000000   0.000000   0.000000   0.000000   0.280822
      2       0.000000   0.000000   0.000000   0.000000   0.000000   0.176246
      3       0.000000   0.000000   0.000000   0.000000   0.000000   0.000000
      4       0.000000   0.000000   0.000000   0.000000   0.000000  -0.748127
      5       0.000000   0.000000   0.000000   0.000000   0.000000  -0.469529
      6       0.000000   0.000000   0.000000   0.000000   0.000000  -0.000000
      7       0.000000   0.000000   0.000000   0.000000   0.000000   0.280822
      8       0.000000   0.000000   0.000000   0.000000   0.000000   0.176246
                  6          7          8    
      0       0.000000  -0.707127  -0.331513
      1      -0.176246  -0.000000  -0.000000
      2       0.280822   0.000000  -0.000000
      3       0.000000   0.000054   0.883262
      4       0.469529   0.000000   0.000000
      5      -0.748127  -0.000000   0.000000
      6      -0.000000   0.707086  -0.331583
      7      -0.176246  -0.000000  -0.000000
      8       0.280822   0.000000  -0.000000


-----------
IR SPECTRUM
-----------

 Mode   freq       eps      Int      T**2         TX        TY        TZ
       cm**-1   L/(mol*cm) km/mol    a.u.
----------------------------------------------------------------------------
  5:    663.70   0.004105   20.75  0.001930  ( 0.000000 -0.037213 -0.023355)
  6:    663.70   0.004105   20.75  0.001930  ( 0.000000  0.023355 -0.037213)
  7:   1340.68   0.000000    0.00  0.000000  ( 0.000009  0.000000 -0.000000)
  8:   2371.99   0.116249  587.47  0.015294  ( 0.123669  0.000000  0.000000)

* The epsilon (eps) is given for a Dirac delta lineshape.
** The dipole moment derivative (T) already includes vibrational overlap.

The first frequency considered to be a vibration is 5
The total number of vibrations considered is 4


--------------------------
THERMOCHEMISTRY AT 298.15K
--------------------------

Temperature         ...   298.15 K
Pressure            ...     1.00 atm
Total Mass          ...    44.01 AMU
Quasi RRHO          ...     True
Cut-Off Frequency   ...     1.00 cm^-1
The molecule is recognized as being linear

Throughout the following assumptions are being made:
  (1) The electronic state is orbitally nondegenerate
  (2) There are no thermally accessible electronically excited states
  (3) Hindered rotations indicated by low frequency modes are not
      treated as such but are treated as vibrations and this may
      cause some error
  (4) All equations used are the standard statistical mechanics
      equations for an ideal gas
  (5) All vibrations are strictly harmonic

freq.     663.70  E(vib)   ...       0.08 
freq.     663.70  E(vib)   ...       0.08 
freq.    1340.68  E(vib)   ...       0.01 
freq.    2371.99  E(vib)   ...       0.00 

------------
INNER ENERGY
------------

The inner energy is: U= E(el) + E(ZPE) + E(vib) + E(rot) + E(trans)
    E(el)   - is the total energy from the electronic structure calculation
              = E(kin-el) + E(nuc-el) + E(el-el) + E(nuc-nuc)
    E(ZPE)  - the the zero temperature vibrational energy from the frequency calculation
    E(vib)  - the the finite temperature correction to E(ZPE) due to population
              of excited vibrational states
    E(rot)  - is the rotational thermal energy
    E(trans)- is the translational thermal energy

Summary of contributions to the inner energy U:
Electronic energy                ...   -188.34059537 Eh
Zero point energy                ...      0.01148214 Eh       7.21 kcal/mol
Thermal vibrational correction   ...      0.00026588 Eh       0.17 kcal/mol
Thermal rotational correction    ...      0.00094418 Eh       0.59 kcal/mol
Thermal translational correction ...      0.00141627 Eh       0.89 kcal/mol
-----------------------------------------------------------------------
Total thermal energy                   -188.32648690 Eh


Summary of corrections to the electronic energy:
(perhaps to be used in another calculation)
Total thermal correction                  0.00262633 Eh       1.65 kcal/mol
Non-thermal (ZPE) correction              0.01148214 Eh       7.21 kcal/mol
-----------------------------------------------------------------------
Total correction                          0.01410847 Eh       8.85 kcal/mol


--------
ENTHALPY
--------

The enthalpy is H = U + kB*T
                kB is Boltzmann's constant
Total thermal energy              ...   -188.32648690 Eh 
Thermal Enthalpy correction       ...      0.00094421 Eh       0.59 kcal/mol
-----------------------------------------------------------------------
Total Enthalpy                    ...   -188.32554269 Eh


Note: Rotational entropy computed according to Herzberg 
Infrared and Raman Spectra, Chapter V,1, Van Nostrand Reinhold, 1945 
Point Group:  D(inf)h, Symmetry Number:   1  
Rotational constants in cm-1:     0.000000     0.386861     0.386861 

Vibrational entropy computed according to the QRRHO of S. Grimme
Chem.Eur.J. 2012 18 9955 using a reference frequency of 100.0 cm-1


-------
ENTROPY
-------

The entropy contributions are T*S = T*(S(el)+S(vib)+S(rot)+S(trans))
     S(el)   - electronic entropy
     S(vib)  - vibrational entropy
     S(rot)  - rotational entropy
     S(trans)- translational entropy
The entropies will be listed as multiplied by the temperature to get
units of energy

Electronic entropy                ...      0.00000000 Eh      0.00 kcal/mol
Vibrational entropy               ...      0.00034602 Eh      0.22 kcal/mol
Rotational entropy                ...      0.00687694 Eh      4.32 kcal/mol
Translational entropy             ...      0.01770880 Eh     11.11 kcal/mol
-----------------------------------------------------------------------
Final entropy term                ...      0.02493176 Eh     15.64 kcal/mol


-------------------
GIBBS FREE ENERGY
-------------------

The Gibbs free energy is G = H - T*S

Total enthalpy                    ...   -188.32554269 Eh 
Total entropy correction          ...     -0.02493176 Eh    -15.64 kcal/mol
-----------------------------------------------------------------------
Final Gibbs free energy         ...   -188.35047445 Eh

For completeness - the Gibbs free energy minus the electronic energy
G-E(el)                           ...     -0.00987908 Eh     -6.20 kcal/mol



--------------------------------
SUGGESTED CITATIONS FOR THIS RUN
--------------------------------

Below you find a list of papers that are relevant to this ORCA run
We neither can nor want to force you to cite these papers, but we appreciate if you do
You receive ORCA, which is the product of decades of hard work by many enthusiastic individuals, for free
The only thing we kindly ask in return is that you cite our papers,
We deeply appreciate it, if you show your appreciation for ORCA by not just citing the generic ORCA reference.

Please note that relegating all ORCA citations to the supporting information does *not* help us.
SI sections are not indexed - citations you put there will not count into any citation statistics
But we need these citations in order to attract the funding resources that allow us to do what we are doing

Therefore, if you are a happy ORCA user, please consider citing a few of the papers listed below in the main body of your paper

In addition to the list printed below, the program has created the file CO2-CC_.bibtex that contains the list in bibtex format
You can import this file easily into all common literature databanks and citation aid programs


List of essential papers. We consider these as the minimum necessary citations

  1. Neese,F.
     Software update: the ORCA program system, version 5.0
     WIRES Comput. Molec. Sci., 2022 12(1)e1606
     doi.org/10.1002/wcms.1606

List of papers to cite with high priority. The work reported in these papers was absolutely
necessary for this run to complete.
Our perspective: the developers of density functionals and basis sets usually get cited in chemistry papers
Good! But without the algorithms to do something with them, the functionals or basis sets would not do anything.
Hence, in our opinion, the algorithm design and method developments papers are equally worthy of getting cited

  1. Bykov,D.; Petrenko,T.; Izsak,R.; Kossmann,S.; Becker,U.; Valeev,E.; Neese,F.
     Efficient implementation of the analytic second derivatives of Hartree-Fock and hybrid DFT energies: a detailed analysis of different approximations
     Molec. Phys., 2015 113 1961-1977
     doi.org/10.1080/00268976.2015.1025114
  2. Neese,F.
     The SHARK Integral Generation and Digestion System
     J. Comp. Chem., 2022  1-16
     doi.org/10.1002/jcc.26942

List of suggested additional citations. These are papers that are important in the 'surrounding' of 
of this run, or papers that preceded the highly important papers. If you like your results we are grateful for a citation.

  1. Neese,F.
     The ORCA program system
     WIRES Comput. Molec. Sci., 2012 2(1)73-78
     doi.org/10.1002/wcms.81
  2. Neese,F.
     Software update: the ORCA program system, version 4.0
     WIRES Comput. Molec. Sci., 2018 8(1)1-6
     doi.org/10.1002/wcms.1327
  3. Neese,F.; Wennmohs,F.; Becker,U.; Riplinger,C.
     The ORCA quantum chemistry program package
     J. Chem. Phys., 2020 152 Art. No. L224108
     doi.org/10.1063/5.0004608

List of optional additional citations

  1. Neese,F.
     Approximate second-order SCF convergence for spin unrestricted wavefunctions
     Chem. Phys. Lett., 2000 325(1-3)93-98
     doi.org/10.1016/s0009-2614(00)00662-x

Timings for individual modules:

Sum of individual times          ...    10312.542 sec (= 171.876 min)
Startup calculation              ...       12.341 sec (=   0.206 min)   0.1 %
SCF iterations                   ...       24.153 sec (=   0.403 min)   0.2 %
Property integrals               ...        6.737 sec (=   0.112 min)   0.1 %
Property calculations            ...        1.198 sec (=   0.020 min)   0.0 %
MDCI module                      ...      373.132 sec (=   6.219 min)   3.6 %
SCF Gradient evaluation          ...     1523.892 sec (=  25.398 min)  14.8 %
Geometry relaxation              ...        0.146 sec (=   0.002 min)   0.0 %
Numerical frequency calculation  ...     8370.944 sec (= 139.516 min)  81.2 %
                             ****ORCA TERMINATED NORMALLY****
TOTAL RUN TIME: 0 days 2 hours 45 minutes 54 seconds 476 msec
